                         Program Version 5.0.3 -  RELEASE  -
|  1> !B3LYP EPR-III Autoaux
|  2> !PAL4
|  3>
|  4> * xyz 0 2
|  5>  C    -26.2006935152    -44.5345491158    -17.1590925432
|  6>  H    -27.2994279490    -44.6007267132    -17.2677915437
|  7>  H    -25.3933927711    -45.2693411890    -17.3363411398
|  8>  H    -25.8262412186    -43.5592424189    -16.8230978753
|  9> *
| 10>
| 11> %EPRNMR
| 12>         GTENSOR   TRUE
| 13>         NUCLEI    = ALL H {AISO, ADIP, AORB}
| 14>         NUCLEI    = ALL C {AISO, ADIP, AORB}
| 15> END
| 16>
| 17>
| 18>                          ****END OF INPUT****

CARTESIAN COORDINATES (ANGSTROEM)
---------------------------------
  C    -26.200694  -44.534549  -17.159093
  H    -27.299428  -44.600727  -17.267792
  H    -25.393393  -45.269341  -17.336341
  H    -25.826241  -43.559242  -16.823098

 Total Charge           Charge          ....    0
 Multiplicity           Mult            ....    2
 Number of Electrons    NEL             ....    9
 Basis Dimension        Dim             ....   73

ORBITAL ENERGIES
----------------
                 SPIN UP ORBITALS
  NO   OCC          E(Eh)            E(eV)
   0   1.0000     -10.191111      -277.3142
   1   1.0000      -0.681935       -18.5564
   2   1.0000      -0.432236       -11.7617
   3   1.0000      -0.402269       -10.9463
   4   1.0000      -0.234835        -6.3902
   5   0.0000       0.000028         0.0008
   6   0.0000       0.034676         0.9436
   7   0.0000       0.038517         1.0481
   8   0.0000       0.047371         1.2890
   9   0.0000       0.079027         2.1504

                 SPIN DOWN ORBITALS
  NO   OCC          E(Eh)            E(eV)
   0   1.0000     -10.176542      -276.9178
   1   1.0000      -0.642301       -17.4779
   2   1.0000      -0.423339       -11.5196
   3   1.0000      -0.392634       -10.6841
   4   0.0000      -0.077135        -2.0990
   5   0.0000       0.003416         0.0930
   6   0.0000       0.034384         0.9356
   7   0.0000       0.038132         1.0376
   8   0.0000       0.060693         1.6516

MULLIKEN ATOMIC CHARGES AND SPIN POPULATIONS
--------------------------------------------
   0 C :   -0.430711    1.108722
   1 H :    0.149502   -0.036042
   2 H :    0.148239   -0.036392
   3 H :    0.132969   -0.036288
Sum of atomic charges         :   -0.0000000

LOEWDIN ATOMIC CHARGES AND SPIN POPULATIONS
-------------------------------------------
   0 C :   -0.171970    0.917910
   1 H :    0.060192    0.026626
   2 H :    0.059859    0.026693
   3 H :    0.051918    0.028771

  Mayer bond orders larger than 0.100000
B(  0-C ,  1-H ) :   0.9732 B(  0-C ,  2-H ) :   0.9736 B(  0-C ,  3-H ) :   0.9764

FINAL SINGLE POINT ENERGY       -39.824788127539

DIPOLE MOMENT
-------------
                                X             Y             Z
Electronic contribution:     -0.05428      -0.11176      -0.03420
Nuclear contribution   :      0.06222       0.13066       0.03751
                        -----------------------------------------
Total Dipole Moment    :      0.00794       0.01891       0.00330
                        -----------------------------------------
Magnitude (a.u.)       :      0.02077
Magnitude (Debye)      :      0.05280

Rotational constants in cm-1:    10.423331     8.183061     4.584250
Rotational constants in MHz : 312483.589981 245321.992964 137432.345712

                             ****ORCA TERMINATED NORMALLY****
TOTAL RUN TIME: 0 days 0 hours 0 minutes 26 seconds 342 msec
