                         Program Version 5.0.3 -  RELEASE  -
|  1> !B3LYP EPR-III Autoaux
|  2> !PAL4
|  3>
|  4> * xyz 0 2
|  5>  C     -4.0582964628    -19.5534262179    -11.4358350665
|  6>  H     -4.7681588883    -19.2978847385    -10.5280507995
|  7>  H     -4.1965534088    -20.3414240646    -12.1481602640
|  8>  H     -3.2989909267    -18.8032795704    -11.6778922163
|  9> *
| 10>
| 11> %EPRNMR
| 12>         GTENSOR   TRUE
| 13>         NUCLEI    = ALL H {AISO, ADIP, AORB}
| 14>         NUCLEI    = ALL C {AISO, ADIP, AORB}
| 15> END
| 16>
| 17>
| 18>                          ****END OF INPUT****

CARTESIAN COORDINATES (ANGSTROEM)
---------------------------------
  C     -4.058296  -19.553426  -11.435835
  H     -4.768159  -19.297885  -10.528051
  H     -4.196553  -20.341424  -12.148160
  H     -3.298991  -18.803280  -11.677892

 Total Charge           Charge          ....    0
 Multiplicity           Mult            ....    2
 Number of Electrons    NEL             ....    9
 Basis Dimension        Dim             ....   73

ORBITAL ENERGIES
----------------
                 SPIN UP ORBITALS
  NO   OCC          E(Eh)            E(eV)
   0   1.0000     -10.194543      -277.4076
   1   1.0000      -0.679824       -18.4990
   2   1.0000      -0.424696       -11.5566
   3   1.0000      -0.404762       -11.0141
   4   1.0000      -0.236019        -6.4224
   5   0.0000      -0.000669        -0.0182
   6   0.0000       0.035487         0.9657
   7   0.0000       0.037745         1.0271
   8   0.0000       0.047264         1.2861
   9   0.0000       0.077151         2.0994

                 SPIN DOWN ORBITALS
  NO   OCC          E(Eh)            E(eV)
   0   1.0000     -10.179870      -277.0083
   1   1.0000      -0.640201       -17.4208
   2   1.0000      -0.415406       -11.3038
   3   1.0000      -0.395596       -10.7647
   4   0.0000      -0.077632        -2.1125
   5   0.0000       0.002856         0.0777
   6   0.0000       0.035262         0.9595
   7   0.0000       0.037442         1.0189
   8   0.0000       0.060562         1.6480

MULLIKEN ATOMIC CHARGES AND SPIN POPULATIONS
--------------------------------------------
   0 C :   -0.426194    1.107913
   1 H :    0.140491   -0.040168
   2 H :    0.147809   -0.032714
   3 H :    0.137894   -0.035032
Sum of atomic charges         :   -0.0000000

LOEWDIN ATOMIC CHARGES AND SPIN POPULATIONS
-------------------------------------------
   0 C :   -0.177438    0.922083
   1 H :    0.087484    0.015685
   2 H :    0.040264    0.032942
   3 H :    0.049690    0.029289

  Mayer bond orders larger than 0.100000
B(  0-C ,  1-H ) :   0.9714 B(  0-C ,  2-H ) :   0.9726 B(  0-C ,  3-H ) :   0.9739

FINAL SINGLE POINT ENERGY       -39.821936834115

DIPOLE MOMENT
-------------
                                X             Y             Z
Electronic contribution:      0.04620      -0.12852      -0.00555
Nuclear contribution   :     -0.06656       0.16315      -0.03492
                        -----------------------------------------
Total Dipole Moment    :     -0.02037       0.03464      -0.04048
                        -----------------------------------------
Magnitude (a.u.)       :      0.05703
Magnitude (Debye)      :      0.14497

Rotational constants in cm-1:     9.916780     8.122980     4.490541
Rotational constants in MHz : 297297.590243 243520.808811 134623.038852

                             ****ORCA TERMINATED NORMALLY****
TOTAL RUN TIME: 0 days 0 hours 0 minutes 21 seconds 313 msec
