                         Program Version 5.0.3 -  RELEASE  -
|  1> !B3LYP EPR-III Autoaux
|  2> !PAL4
|  3>
|  4> * xyz 0 2
|  5>  C    -84.9783916008   -112.5011432640    -31.5685936064
|  6>  H    -84.3749650840   -113.4126233750    -31.6146979162
|  7>  H    -84.3769293465   -111.5469003825    -31.4474086921
|  8>  H    -86.0097316813   -112.4902984984    -31.6015686868
|  9> *
| 10>
| 11> %EPRNMR
| 12>         GTENSOR   TRUE
| 13>         NUCLEI    = ALL H {AISO, ADIP, AORB}
| 14>         NUCLEI    = ALL C {AISO, ADIP, AORB}
| 15> END
| 16>
| 17>
| 18>                          ****END OF INPUT****

CARTESIAN COORDINATES (ANGSTROEM)
---------------------------------
  C    -84.978392  -112.501143  -31.568594
  H    -84.374965  -113.412623  -31.614698
  H    -84.376929  -111.546900  -31.447409
  H    -86.009732  -112.490298  -31.601569

 Total Charge           Charge          ....    0
 Multiplicity           Mult            ....    2
 Number of Electrons    NEL             ....    9
 Basis Dimension        Dim             ....   73

ORBITAL ENERGIES
----------------
                 SPIN UP ORBITALS
  NO   OCC          E(Eh)            E(eV)
   0   1.0000     -10.186171      -277.1798
   1   1.0000      -0.686631       -18.6842
   2   1.0000      -0.436741       -11.8843
   3   1.0000      -0.406352       -11.0574
   4   1.0000      -0.234945        -6.3932
   5   0.0000       0.000725         0.0197
   6   0.0000       0.035462         0.9650
   7   0.0000       0.037912         1.0316
   8   0.0000       0.047440         1.2909
   9   0.0000       0.085818         2.3352

                 SPIN DOWN ORBITALS
  NO   OCC          E(Eh)            E(eV)
   0   1.0000     -10.171693      -276.7858
   1   1.0000      -0.647066       -17.6076
   2   1.0000      -0.427140       -11.6231
   3   1.0000      -0.397169       -10.8075
   4   0.0000      -0.077363        -2.1052
   5   0.0000       0.003927         0.1069
   6   0.0000       0.035103         0.9552
   7   0.0000       0.037556         1.0219
   8   0.0000       0.060707         1.6519

MULLIKEN ATOMIC CHARGES AND SPIN POPULATIONS
--------------------------------------------
   0 C :   -0.427332    1.104438
   1 H :    0.141101   -0.035537
   2 H :    0.135389   -0.038269
   3 H :    0.150842   -0.030633
Sum of atomic charges         :    0.0000000

LOEWDIN ATOMIC CHARGES AND SPIN POPULATIONS
-------------------------------------------
   0 C :   -0.152398    0.909867
   1 H :    0.055568    0.028650
   2 H :    0.072538    0.022349
   3 H :    0.024292    0.039133

  Mayer bond orders larger than 0.100000
B(  0-C ,  1-H ) :   0.9768 B(  0-C ,  2-H ) :   0.9772 B(  0-C ,  3-H ) :   0.9763

FINAL SINGLE POINT ENERGY       -39.824945842884

DIPOLE MOMENT
-------------
                                X             Y             Z
Electronic contribution:     -0.12929      -0.04500      -0.02351
Nuclear contribution   :      0.13007       0.04018       0.03156
                        -----------------------------------------
Total Dipole Moment    :      0.00078      -0.00482       0.00805
                        -----------------------------------------
Magnitude (a.u.)       :      0.00941
Magnitude (Debye)      :      0.02393

Rotational constants in cm-1:     9.570847     9.293798     4.715768
Rotational constants in MHz : 286926.777970 278621.049467 141375.168728

                             ****ORCA TERMINATED NORMALLY****
TOTAL RUN TIME: 0 days 0 hours 0 minutes 21 seconds 776 msec
