                         Program Version 5.0.3 -  RELEASE  -
|  1> !B3LYP EPR-III Autoaux
|  2> !PAL4
|  3>
|  4> * xyz 0 2
|  5>  C    -73.6244951112    -98.6298446209    -28.8449518909
|  6>  H    -73.9193450734    -97.5808774030    -28.7711437323
|  7>  H    -74.5417312498    -99.3502002425    -28.9604764250
|  8>  H    -72.5733527386    -98.7590233660    -28.8295546667
|  9> *
| 10>
| 11> %EPRNMR
| 12>         GTENSOR   TRUE
| 13>         NUCLEI    = ALL H {AISO, ADIP, AORB}
| 14>         NUCLEI    = ALL C {AISO, ADIP, AORB}
| 15> END
| 16>
| 17>
| 18>                          ****END OF INPUT****

CARTESIAN COORDINATES (ANGSTROEM)
---------------------------------
  C    -73.624495  -98.629845  -28.844952
  H    -73.919345  -97.580877  -28.771144
  H    -74.541731  -99.350200  -28.960476
  H    -72.573353  -98.759023  -28.829555

 Total Charge           Charge          ....    0
 Multiplicity           Mult            ....    2
 Number of Electrons    NEL             ....    9
 Basis Dimension        Dim             ....   73

ORBITAL ENERGIES
----------------
                 SPIN UP ORBITALS
  NO   OCC          E(Eh)            E(eV)
   0   1.0000     -10.192171      -277.3431
   1   1.0000      -0.682511       -18.5721
   2   1.0000      -0.433844       -11.8055
   3   1.0000      -0.397691       -10.8217
   4   1.0000      -0.235062        -6.3964
   5   0.0000      -0.000550        -0.0150
   6   0.0000       0.033996         0.9251
   7   0.0000       0.038832         1.0567
   8   0.0000       0.047319         1.2876
   9   0.0000       0.072951         1.9851

                 SPIN DOWN ORBITALS
  NO   OCC          E(Eh)            E(eV)
   0   1.0000     -10.177554      -276.9453
   1   1.0000      -0.642933       -17.4951
   2   1.0000      -0.424879       -11.5615
   3   1.0000      -0.388051       -10.5594
   4   0.0000      -0.077182        -2.1002
   5   0.0000       0.002964         0.0806
   6   0.0000       0.033799         0.9197
   7   0.0000       0.038470         1.0468
   8   0.0000       0.060643         1.6502

MULLIKEN ATOMIC CHARGES AND SPIN POPULATIONS
--------------------------------------------
   0 C :   -0.433153    1.110637
   1 H :    0.131819   -0.036155
   2 H :    0.148391   -0.041276
   3 H :    0.152943   -0.033207
Sum of atomic charges         :    0.0000000

LOEWDIN ATOMIC CHARGES AND SPIN POPULATIONS
-------------------------------------------
   0 C :   -0.173551    0.919544
   1 H :    0.048719    0.029741
   2 H :    0.088093    0.016140
   3 H :    0.036739    0.034575

  Mayer bond orders larger than 0.100000
B(  0-C ,  1-H ) :   0.9763 B(  0-C ,  2-H ) :   0.9712 B(  0-C ,  3-H ) :   0.9739

FINAL SINGLE POINT ENERGY       -39.819243128303

DIPOLE MOMENT
-------------
                                X             Y             Z
Electronic contribution:      0.11622      -0.11959       0.01150
Nuclear contribution   :     -0.12062       0.14947      -0.01973
                        -----------------------------------------
Total Dipole Moment    :     -0.00440       0.02988      -0.00823
                        -----------------------------------------
Magnitude (a.u.)       :      0.03130
Magnitude (Debye)      :      0.07957

Rotational constants in cm-1:    10.826586     7.817219     4.540479
Rotational constants in MHz : 324572.881105 234354.328331 136120.142457

                             ****ORCA TERMINATED NORMALLY****
TOTAL RUN TIME: 0 days 0 hours 0 minutes 24 seconds 288 msec
