                         Program Version 5.0.3 -  RELEASE  -
|  1> !B3LYP EPR-III Autoaux
|  2> !PAL4
|  3>
|  4> * xyz 0 2
|  5>  C    -56.0053567649    -77.8835435156    -24.6885511244
|  6>  H    -55.1813375769    -78.6132851037    -24.7485505642
|  7>  H    -55.7407714057    -76.7768687305    -24.5327238734
|  8>  H    -57.0427186754    -78.1423547555    -24.7257083840
|  9> *
| 10>
| 11> %EPRNMR
| 12>         GTENSOR   TRUE
| 13>         NUCLEI    = ALL H {AISO, ADIP, AORB}
| 14>         NUCLEI    = ALL C {AISO, ADIP, AORB}
| 15> END
| 16>
| 17>
| 18>                          ****END OF INPUT****

CARTESIAN COORDINATES (ANGSTROEM)
---------------------------------
  C    -56.005357  -77.883544  -24.688551
  H    -55.181338  -78.613285  -24.748551
  H    -55.740771  -76.776869  -24.532724
  H    -57.042719  -78.142355  -24.725708

 Total Charge           Charge          ....    0
 Multiplicity           Mult            ....    2
 Number of Electrons    NEL             ....    9
 Basis Dimension        Dim             ....   73

ORBITAL ENERGIES
----------------
                 SPIN UP ORBITALS
  NO   OCC          E(Eh)            E(eV)
   0   1.0000     -10.192142      -277.3423
   1   1.0000      -0.680851       -18.5269
   2   1.0000      -0.428158       -11.6508
   3   1.0000      -0.406256       -11.0548
   4   1.0000      -0.234936        -6.3929
   5   0.0000      -0.000008        -0.0002
   6   0.0000       0.035808         0.9744
   7   0.0000       0.037495         1.0203
   8   0.0000       0.047351         1.2885
   9   0.0000       0.084678         2.3042

                 SPIN DOWN ORBITALS
  NO   OCC          E(Eh)            E(eV)
   0   1.0000     -10.177550      -276.9452
   1   1.0000      -0.641065       -17.4443
   2   1.0000      -0.418813       -11.3965
   3   1.0000      -0.397235       -10.8093
   4   0.0000      -0.077120        -2.0985
   5   0.0000       0.003408         0.0927
   6   0.0000       0.035472         0.9652
   7   0.0000       0.037188         1.0119
   8   0.0000       0.060680         1.6512

MULLIKEN ATOMIC CHARGES AND SPIN POPULATIONS
--------------------------------------------
   0 C :   -0.426603    1.108079
   1 H :    0.144928   -0.035536
   2 H :    0.134959   -0.039077
   3 H :    0.146715   -0.033465
Sum of atomic charges         :    0.0000000

LOEWDIN ATOMIC CHARGES AND SPIN POPULATIONS
-------------------------------------------
   0 C :   -0.171242    0.918963
   1 H :    0.056421    0.027539
   2 H :    0.074492    0.020502
   3 H :    0.040329    0.032996

  Mayer bond orders larger than 0.100000
B(  0-C ,  1-H ) :   0.9732 B(  0-C ,  2-H ) :   0.9746 B(  0-C ,  3-H ) :   0.9735

FINAL SINGLE POINT ENERGY       -39.825495732844

DIPOLE MOMENT
-------------
                                X             Y             Z
Electronic contribution:     -0.04231      -0.09289      -0.03269
Nuclear contribution   :      0.03841       0.08853       0.04397
                        -----------------------------------------
Total Dipole Moment    :     -0.00390      -0.00436       0.01128
                        -----------------------------------------
Magnitude (a.u.)       :      0.01271
Magnitude (Debye)      :      0.03230

Rotational constants in cm-1:     9.289550     8.907568     4.548479
Rotational constants in MHz : 278493.701250 267042.174532 136359.959278

                             ****ORCA TERMINATED NORMALLY****
TOTAL RUN TIME: 0 days 0 hours 0 minutes 18 seconds 268 msec
