                         Program Version 5.0.3 -  RELEASE  -
|  1> !B3LYP EPR-III Autoaux
|  2> !PAL4
|  3>
|  4> * xyz 0 2
|  5>  C      7.6529048367     -6.2198039105     -8.4056689454
|  6>  H      7.3307081213     -5.7069812659     -7.3970284841
|  7>  H      6.8173916452     -6.1529285193     -9.0665746585
|  8>  H      8.6534926273     -6.5139584155     -8.7673404258
|  9> *
| 10>
| 11> %EPRNMR
| 12>         GTENSOR   TRUE
| 13>         NUCLEI    = ALL H {AISO, ADIP, AORB}
| 14>         NUCLEI    = ALL C {AISO, ADIP, AORB}
| 15> END
| 16>
| 17>
| 18>                          ****END OF INPUT****

CARTESIAN COORDINATES (ANGSTROEM)
---------------------------------
  C      7.652905   -6.219804   -8.405669
  H      7.330708   -5.706981   -7.397028
  H      6.817392   -6.152929   -9.066575
  H      8.653493   -6.513958   -8.767340

 Total Charge           Charge          ....    0
 Multiplicity           Mult            ....    2
 Number of Electrons    NEL             ....    9
 Basis Dimension        Dim             ....   73

ORBITAL ENERGIES
----------------
                 SPIN UP ORBITALS
  NO   OCC          E(Eh)            E(eV)
   0   1.0000     -10.194892      -277.4171
   1   1.0000      -0.680334       -18.5128
   2   1.0000      -0.433290       -11.7904
   3   1.0000      -0.394486       -10.7345
   4   1.0000      -0.236537        -6.4365
   5   0.0000      -0.000963        -0.0262
   6   0.0000       0.034270         0.9325
   7   0.0000       0.038889         1.0582
   8   0.0000       0.047222         1.2850
   9   0.0000       0.074191         2.0188

                 SPIN DOWN ORBITALS
  NO   OCC          E(Eh)            E(eV)
   0   1.0000     -10.180197      -277.0172
   1   1.0000      -0.640854       -17.4385
   2   1.0000      -0.424235       -11.5440
   3   1.0000      -0.384957       -10.4752
   4   0.0000      -0.077966        -2.1216
   5   0.0000       0.002583         0.0703
   6   0.0000       0.034049         0.9265
   7   0.0000       0.038578         1.0498
   8   0.0000       0.060489         1.6460

MULLIKEN ATOMIC CHARGES AND SPIN POPULATIONS
--------------------------------------------
   0 C :   -0.429600    1.108406
   1 H :    0.137291   -0.040932
   2 H :    0.139101   -0.034046
   3 H :    0.153208   -0.033428
Sum of atomic charges         :   -0.0000000

LOEWDIN ATOMIC CHARGES AND SPIN POPULATIONS
-------------------------------------------
   0 C :   -0.179745    0.922556
   1 H :    0.085837    0.016317
   2 H :    0.035731    0.033742
   3 H :    0.058177    0.027385

  Mayer bond orders larger than 0.100000
B(  0-C ,  1-H ) :   0.9736 B(  0-C ,  2-H ) :   0.9739 B(  0-C ,  3-H ) :   0.9707

FINAL SINGLE POINT ENERGY       -39.818940913047

DIPOLE MOMENT
-------------
                                X             Y             Z
Electronic contribution:      0.10944      -0.15753      -0.03085
Nuclear contribution   :     -0.11776       0.21401      -0.01045
                        -----------------------------------------
Total Dipole Moment    :     -0.00832       0.05647      -0.04129
                        -----------------------------------------
Magnitude (a.u.)       :      0.07045
Magnitude (Debye)      :      0.17908

Rotational constants in cm-1:    10.676256     7.662814     4.494650
Rotational constants in MHz : 320066.095150 229725.383492 134746.221139

                             ****ORCA TERMINATED NORMALLY****
TOTAL RUN TIME: 0 days 0 hours 0 minutes 18 seconds 422 msec
