                         Program Version 5.0.3 -  RELEASE  -
|  1> !B3LYP EPR-III Autoaux
|  2> !PAL4
|  3>
|  4> * xyz 0 2
|  5>  C    -63.0259070557    -85.8487425312    -26.3963712575
|  6>  H    -62.4296914644    -86.7773544033    -26.4815873469
|  7>  H    -62.4428398893    -84.9795291166    -26.2740872125
|  8>  H    -64.1589365556    -86.0088951610    -26.4373004687
|  9> *
| 10>
| 11> %EPRNMR
| 12>         GTENSOR   TRUE
| 13>         NUCLEI    = ALL H {AISO, ADIP, AORB}
| 14>         NUCLEI    = ALL C {AISO, ADIP, AORB}
| 15> END
| 16>
| 17>
| 18>                          ****END OF INPUT****

CARTESIAN COORDINATES (ANGSTROEM)
---------------------------------
  C    -63.025907  -85.848743  -26.396371
  H    -62.429691  -86.777354  -26.481587
  H    -62.442840  -84.979529  -26.274087
  H    -64.158937  -86.008895  -26.437300

 Total Charge           Charge          ....    0
 Multiplicity           Mult            ....    2
 Number of Electrons    NEL             ....    9
 Basis Dimension        Dim             ....   73

ORBITAL ENERGIES
----------------
                 SPIN UP ORBITALS
  NO   OCC          E(Eh)            E(eV)
   0   1.0000     -10.190891      -277.3083
   1   1.0000      -0.683191       -18.5906
   2   1.0000      -0.434382       -11.8201
   3   1.0000      -0.400950       -10.9104
   4   1.0000      -0.235035        -6.3956
   5   0.0000      -0.000063        -0.0017
   6   0.0000       0.034553         0.9402
   7   0.0000       0.038477         1.0470
   8   0.0000       0.047258         1.2860
   9   0.0000       0.078330         2.1315

                 SPIN DOWN ORBITALS
  NO   OCC          E(Eh)            E(eV)
   0   1.0000     -10.176363      -276.9129
   1   1.0000      -0.643641       -17.5144
   2   1.0000      -0.425268       -11.5721
   3   1.0000      -0.391522       -10.6539
   4   0.0000      -0.077351        -2.1048
   5   0.0000       0.003323         0.0904
   6   0.0000       0.034264         0.9324
   7   0.0000       0.038080         1.0362
   8   0.0000       0.060561         1.6480

MULLIKEN ATOMIC CHARGES AND SPIN POPULATIONS
--------------------------------------------
   0 C :   -0.431275    1.107909
   1 H :    0.132182   -0.036628
   2 H :    0.151548   -0.032595
   3 H :    0.147545   -0.038685
Sum of atomic charges         :    0.0000000

LOEWDIN ATOMIC CHARGES AND SPIN POPULATIONS
-------------------------------------------
   0 C :   -0.168433    0.916725
   1 H :    0.056754    0.027294
   2 H :    0.034118    0.035518
   3 H :    0.077561    0.020462

  Mayer bond orders larger than 0.100000
B(  0-C ,  1-H ) :   0.9768 B(  0-C ,  2-H ) :   0.9745 B(  0-C ,  3-H ) :   0.9726

FINAL SINGLE POINT ENERGY       -39.822648523299

DIPOLE MOMENT
-------------
                                X             Y             Z
Electronic contribution:     -0.02281       0.15121       0.00734
Nuclear contribution   :      0.03467      -0.16455      -0.00289
                        -----------------------------------------
Total Dipole Moment    :      0.01185      -0.01334       0.00445
                        -----------------------------------------
Magnitude (a.u.)       :      0.01839
Magnitude (Debye)      :      0.04674

Rotational constants in cm-1:    10.396798     8.219076     4.590551
Rotational constants in MHz : 311688.165190 246401.706271 137621.264017

                             ****ORCA TERMINATED NORMALLY****
TOTAL RUN TIME: 0 days 0 hours 0 minutes 17 seconds 918 msec
