                         Program Version 5.0.3 -  RELEASE  -
|  1> !B3LYP EPR-III Autoaux
|  2> !PAL4
|  3>
|  4> * xyz 0 2
|  5>  C    -92.4225663695   -121.8198890767    -33.1339957331
|  6>  H    -92.0196631704   -122.8135881252    -33.1879530491
|  7>  H    -91.8113523972   -120.9193666169    -33.0206681122
|  8>  H    -93.5519636325   -121.7148394580    -33.1792953914
|  9> *
| 10>
| 11> %EPRNMR
| 12>         GTENSOR   TRUE
| 13>         NUCLEI    = ALL H {AISO, ADIP, AORB}
| 14>         NUCLEI    = ALL C {AISO, ADIP, AORB}
| 15> END
| 16>
| 17>
| 18>                          ****END OF INPUT****

CARTESIAN COORDINATES (ANGSTROEM)
---------------------------------
  C    -92.422566  -121.819889  -33.133996
  H    -92.019663  -122.813588  -33.187953
  H    -91.811352  -120.919367  -33.020668
  H    -93.551964  -121.714839  -33.179295

 Total Charge           Charge          ....    0
 Multiplicity           Mult            ....    2
 Number of Electrons    NEL             ....    9
 Basis Dimension        Dim             ....   73

ORBITAL ENERGIES
----------------
                 SPIN UP ORBITALS
  NO   OCC          E(Eh)            E(eV)
   0   1.0000     -10.190419      -277.2954
   1   1.0000      -0.682151       -18.5623
   2   1.0000      -0.427893       -11.6436
   3   1.0000      -0.408989       -11.1292
   4   1.0000      -0.234814        -6.3896
   5   0.0000       0.000265         0.0072
   6   0.0000       0.035922         0.9775
   7   0.0000       0.037449         1.0190
   8   0.0000       0.047388         1.2895
   9   0.0000       0.086288         2.3480

                 SPIN DOWN ORBITALS
  NO   OCC          E(Eh)            E(eV)
   0   1.0000     -10.175866      -276.8994
   1   1.0000      -0.642434       -17.4815
   2   1.0000      -0.418546       -11.3892
   3   1.0000      -0.399859       -10.8807
   4   0.0000      -0.077120        -2.0985
   5   0.0000       0.003611         0.0983
   6   0.0000       0.035576         0.9681
   7   0.0000       0.037116         1.0100
   8   0.0000       0.060705         1.6519

MULLIKEN ATOMIC CHARGES AND SPIN POPULATIONS
--------------------------------------------
   0 C :   -0.426616    1.107005
   1 H :    0.145422   -0.033828
   2 H :    0.145141   -0.034978
   3 H :    0.136053   -0.038198
Sum of atomic charges         :   -0.0000000

LOEWDIN ATOMIC CHARGES AND SPIN POPULATIONS
-------------------------------------------
   0 C :   -0.166935    0.916499
   1 H :    0.043167    0.032264
   2 H :    0.053586    0.028772
   3 H :    0.070182    0.022465

  Mayer bond orders larger than 0.100000
B(  0-C ,  1-H ) :   0.9744 B(  0-C ,  2-H ) :   0.9741 B(  0-C ,  3-H ) :   0.9752

FINAL SINGLE POINT ENERGY       -39.826666010296

DIPOLE MOMENT
-------------
                                X             Y             Z
Electronic contribution:      0.08804      -0.01244      -0.00538
Nuclear contribution   :     -0.08640       0.00890       0.01055
                        -----------------------------------------
Total Dipole Moment    :      0.00164      -0.00354       0.00516
                        -----------------------------------------
Magnitude (a.u.)       :      0.00647
Magnitude (Debye)      :      0.01646

Rotational constants in cm-1:     9.399473     8.997981     4.597420
Rotational constants in MHz : 281789.104435 269752.693285 137827.175991

                             ****ORCA TERMINATED NORMALLY****
TOTAL RUN TIME: 0 days 0 hours 0 minutes 34 seconds 348 msec
