                         Program Version 5.0.3 -  RELEASE  -
|  1> !B3LYP EPR-III Autoaux
|  2> !PAL4
|  3>
|  4> * xyz 0 2
|  5>  C    -31.1851281776    -50.1628076747    -18.4252499657
|  6>  H    -31.6348645624    -49.2193575380    -18.5088336406
|  7>  H    -31.9385846749    -50.9226995565    -18.3407986266
|  8>  H    -30.1235495040    -50.2347962872    -18.4092917799
|  9> *
| 10>
| 11> %EPRNMR
| 12>         GTENSOR   TRUE
| 13>         NUCLEI    = ALL H {AISO, ADIP, AORB}
| 14>         NUCLEI    = ALL C {AISO, ADIP, AORB}
| 15> END
| 16>
| 17>
| 18>                          ****END OF INPUT****

CARTESIAN COORDINATES (ANGSTROEM)
---------------------------------
  C    -31.185128  -50.162808  -18.425250
  H    -31.634865  -49.219358  -18.508834
  H    -31.938585  -50.922700  -18.340799
  H    -30.123550  -50.234796  -18.409292

 Total Charge           Charge          ....    0
 Multiplicity           Mult            ....    2
 Number of Electrons    NEL             ....    9
 Basis Dimension        Dim             ....   73

ORBITAL ENERGIES
----------------
                 SPIN UP ORBITALS
  NO   OCC          E(Eh)            E(eV)
   0   1.0000     -10.178609      -276.9740
   1   1.0000      -0.693286       -18.8653
   2   1.0000      -0.441910       -12.0250
   3   1.0000      -0.410314       -11.1652
   4   1.0000      -0.234712        -6.3868
   5   0.0000       0.001438         0.0391
   6   0.0000       0.034908         0.9499
   7   0.0000       0.038563         1.0494
   8   0.0000       0.047578         1.2947
   9   0.0000       0.086346         2.3496

                 SPIN DOWN ORBITALS
  NO   OCC          E(Eh)            E(eV)
   0   1.0000     -10.164280      -276.5841
   1   1.0000      -0.654137       -17.8000
   2   1.0000      -0.432537       -11.7699
   3   1.0000      -0.400275       -10.8920
   4   0.0000      -0.077538        -2.1099
   5   0.0000       0.004421         0.1203
   6   0.0000       0.034538         0.9398
   7   0.0000       0.038103         1.0368
   8   0.0000       0.060783         1.6540

MULLIKEN ATOMIC CHARGES AND SPIN POPULATIONS
--------------------------------------------
   0 C :   -0.430466    1.100890
   1 H :    0.136287   -0.033463
   2 H :    0.143762   -0.034854
   3 H :    0.150417   -0.032572
Sum of atomic charges         :    0.0000000

LOEWDIN ATOMIC CHARGES AND SPIN POPULATIONS
-------------------------------------------
   0 C :   -0.134920    0.899468
   1 H :    0.036335    0.036204
   2 H :    0.051223    0.031501
   3 H :    0.047361    0.032827

  Mayer bond orders larger than 0.100000
B(  0-C ,  1-H ) :   0.9810 B(  0-C ,  2-H ) :   0.9805 B(  0-C ,  3-H ) :   0.9792

FINAL SINGLE POINT ENERGY       -39.825002540091

DIPOLE MOMENT
-------------
                                X             Y             Z
Electronic contribution:      0.09257      -0.06457      -0.00642
Nuclear contribution   :     -0.10614       0.08362       0.01261
                        -----------------------------------------
Total Dipole Moment    :     -0.01357       0.01905       0.00619
                        -----------------------------------------
Magnitude (a.u.)       :      0.02419
Magnitude (Debye)      :      0.06149

Rotational constants in cm-1:    11.349943     8.762700     4.945548
Rotational constants in MHz : 340262.725773 262699.144420 148263.810764

                             ****ORCA TERMINATED NORMALLY****
TOTAL RUN TIME: 0 days 0 hours 0 minutes 25 seconds 795 msec
