                         Program Version 5.0.3 -  RELEASE  -
|  1> !B3LYP EPR-III Autoaux
|  2> !PAL4
|  3>
|  4> * xyz 0 2
|  5>  C    -14.5626949357    -31.4383915307    -14.1651646542
|  6>  H    -15.2305064292    -30.5861319994    -14.0086557314
|  7>  H    -14.8251968825    -32.3020952042    -14.7276342884
|  8>  H    -13.6450176966    -31.5079164310    -13.6607200071
|  9> *
| 10>
| 11> %EPRNMR
| 12>         GTENSOR   TRUE
| 13>         NUCLEI    = ALL H {AISO, ADIP, AORB}
| 14>         NUCLEI    = ALL C {AISO, ADIP, AORB}
| 15> END
| 16>
| 17>
| 18>                          ****END OF INPUT****

CARTESIAN COORDINATES (ANGSTROEM)
---------------------------------
  C    -14.562695  -31.438392  -14.165165
  H    -15.230506  -30.586132  -14.008656
  H    -14.825197  -32.302095  -14.727634
  H    -13.645018  -31.507916  -13.660720

 Total Charge           Charge          ....    0
 Multiplicity           Mult            ....    2
 Number of Electrons    NEL             ....    9
 Basis Dimension        Dim             ....   73

ORBITAL ENERGIES
----------------
                 SPIN UP ORBITALS
  NO   OCC          E(Eh)            E(eV)
   0   1.0000     -10.180691      -277.0307
   1   1.0000      -0.690967       -18.8022
   2   1.0000      -0.429555       -11.6888
   3   1.0000      -0.420271       -11.4361
   4   1.0000      -0.234986        -6.3943
   5   0.0000       0.001314         0.0357
   6   0.0000       0.036085         0.9819
   7   0.0000       0.037566         1.0222
   8   0.0000       0.047550         1.2939
   9   0.0000       0.089242         2.4284

                 SPIN DOWN ORBITALS
  NO   OCC          E(Eh)            E(eV)
   0   1.0000     -10.166319      -276.6396
   1   1.0000      -0.651749       -17.7350
   2   1.0000      -0.420188       -11.4339
   3   1.0000      -0.410386       -11.1672
   4   0.0000      -0.077574        -2.1109
   5   0.0000       0.004338         0.1180
   6   0.0000       0.035714         0.9718
   7   0.0000       0.037131         1.0104
   8   0.0000       0.060768         1.6536

MULLIKEN ATOMIC CHARGES AND SPIN POPULATIONS
--------------------------------------------
   0 C :   -0.427190    1.100395
   1 H :    0.144340   -0.034461
   2 H :    0.141858   -0.033307
   3 H :    0.140992   -0.032627
Sum of atomic charges         :    0.0000000

LOEWDIN ATOMIC CHARGES AND SPIN POPULATIONS
-------------------------------------------
   0 C :   -0.139681    0.902284
   1 H :    0.059570    0.028260
   2 H :    0.043969    0.033482
   3 H :    0.036142    0.035974

  Mayer bond orders larger than 0.100000
B(  0-C ,  1-H ) :   0.9781 B(  0-C ,  2-H ) :   0.9794 B(  0-C ,  3-H ) :   0.9795

FINAL SINGLE POINT ENERGY       -39.827197803807

DIPOLE MOMENT
-------------
                                X             Y             Z
Electronic contribution:      0.00455       0.03966      -0.04519
Nuclear contribution   :     -0.00947      -0.06068       0.07381
                        -----------------------------------------
Total Dipole Moment    :     -0.00492      -0.02102       0.02862
                        -----------------------------------------
Magnitude (a.u.)       :      0.03585
Magnitude (Debye)      :      0.09113

Rotational constants in cm-1:    10.594048     9.022623     4.883366
Rotational constants in MHz : 317601.560916 270491.439686 146399.640551

                             ****ORCA TERMINATED NORMALLY****
TOTAL RUN TIME: 0 days 0 hours 0 minutes 24 seconds 910 msec
