                         Program Version 5.0.3 -  RELEASE  -
|  1> !B3LYP EPR-III Autoaux
|  2> !PAL4
|  3>
|  4> * xyz 0 2
|  5>  C    -38.7797521540    -58.6610250530    -20.3398367406
|  6>  H    -39.8485940654    -58.2529900145    -20.3402100255
|  7>  H    -38.5243552363    -59.6717513035    -20.4371303038
|  8>  H    -37.8831180782    -58.0318190262    -20.1495940762
|  9> *
| 10>
| 11> %EPRNMR
| 12>         GTENSOR   TRUE
| 13>         NUCLEI    = ALL H {AISO, ADIP, AORB}
| 14>         NUCLEI    = ALL C {AISO, ADIP, AORB}
| 15> END
| 16>
| 17>
| 18>                          ****END OF INPUT****

CARTESIAN COORDINATES (ANGSTROEM)
---------------------------------
  C    -38.779752  -58.661025  -20.339837
  H    -39.848594  -58.252990  -20.340210
  H    -38.524355  -59.671751  -20.437130
  H    -37.883118  -58.031819  -20.149594

 Total Charge           Charge          ....    0
 Multiplicity           Mult            ....    2
 Number of Electrons    NEL             ....    9
 Basis Dimension        Dim             ....   73

ORBITAL ENERGIES
----------------
                 SPIN UP ORBITALS
  NO   OCC          E(Eh)            E(eV)
   0   1.0000     -10.190157      -277.2883
   1   1.0000      -0.683454       -18.5977
   2   1.0000      -0.426423       -11.6035
   3   1.0000      -0.408999       -11.1294
   4   1.0000      -0.234976        -6.3940
   5   0.0000       0.000002         0.0001
   6   0.0000       0.035400         0.9633
   7   0.0000       0.037864         1.0303
   8   0.0000       0.047376         1.2892
   9   0.0000       0.081029         2.2049

                 SPIN DOWN ORBITALS
  NO   OCC          E(Eh)            E(eV)
   0   1.0000     -10.175592      -276.8919
   1   1.0000      -0.643923       -17.5220
   2   1.0000      -0.417248       -11.3539
   3   1.0000      -0.399490       -10.8707
   4   0.0000      -0.077193        -2.1005
   5   0.0000       0.003387         0.0922
   6   0.0000       0.035151         0.9565
   7   0.0000       0.037478         1.0198
   8   0.0000       0.060685         1.6513

MULLIKEN ATOMIC CHARGES AND SPIN POPULATIONS
--------------------------------------------
   0 C :   -0.429003    1.107610
   1 H :    0.147063   -0.037821
   2 H :    0.144792   -0.032838
   3 H :    0.137148   -0.036950
Sum of atomic charges         :    0.0000000

LOEWDIN ATOMIC CHARGES AND SPIN POPULATIONS
-------------------------------------------
   0 C :   -0.166668    0.916285
   1 H :    0.077032    0.020612
   2 H :    0.028873    0.036935
   3 H :    0.060763    0.026168

  Mayer bond orders larger than 0.100000
B(  0-C ,  1-H ) :   0.9721 B(  0-C ,  2-H ) :   0.9751 B(  0-C ,  3-H ) :   0.9760

FINAL SINGLE POINT ENERGY       -39.823207766120

DIPOLE MOMENT
-------------
                                X             Y             Z
Electronic contribution:     -0.05349      -0.03432      -0.04786
Nuclear contribution   :      0.06235       0.01987       0.06938
                        -----------------------------------------
Total Dipole Moment    :      0.00886      -0.01445       0.02153
                        -----------------------------------------
Magnitude (a.u.)       :      0.02740
Magnitude (Debye)      :      0.06964

Rotational constants in cm-1:    10.525356     8.146184     4.596494
Rotational constants in MHz : 315542.222699 244216.454777 137799.409528

                             ****ORCA TERMINATED NORMALLY****
TOTAL RUN TIME: 0 days 0 hours 0 minutes 19 seconds 170 msec
