                         Program Version 5.0.3 -  RELEASE  -
|  1> !B3LYP EPR-III Autoaux
|  2> !PAL4
|  3>
|  4> * xyz 0 2
|  5>  C     -2.0107806677    -17.1937170174    -10.9031883417
|  6>  H     -2.2415850621    -17.9136482986    -11.6001921354
|  7>  H     -1.0252292486    -16.6570394371    -11.1234657066
|  8>  H     -2.6007518175    -16.9580832717    -10.0483588825
|  9> *
| 10>
| 11> %EPRNMR
| 12>         GTENSOR   TRUE
| 13>         NUCLEI    = ALL H {AISO, ADIP, AORB}
| 14>         NUCLEI    = ALL C {AISO, ADIP, AORB}
| 15> END
| 16>
| 17>
| 18>                          ****END OF INPUT****

CARTESIAN COORDINATES (ANGSTROEM)
---------------------------------
  C     -2.010781  -17.193717  -10.903188
  H     -2.241585  -17.913648  -11.600192
  H     -1.025229  -16.657039  -11.123466
  H     -2.600752  -16.958083  -10.048359

 Total Charge           Charge          ....    0
 Multiplicity           Mult            ....    2
 Number of Electrons    NEL             ....    9
 Basis Dimension        Dim             ....   73

ORBITAL ENERGIES
----------------
                 SPIN UP ORBITALS
  NO   OCC          E(Eh)            E(eV)
   0   1.0000     -10.183708      -277.1128
   1   1.0000      -0.689204       -18.7542
   2   1.0000      -0.439301       -11.9540
   3   1.0000      -0.406940       -11.0734
   4   1.0000      -0.234935        -6.3929
   5   0.0000       0.000878         0.0239
   6   0.0000       0.035400         0.9633
   7   0.0000       0.037991         1.0338
   8   0.0000       0.047475         1.2919
   9   0.0000       0.084983         2.3125

                 SPIN DOWN ORBITALS
  NO   OCC          E(Eh)            E(eV)
   0   1.0000     -10.169273      -276.7200
   1   1.0000      -0.649755       -17.6807
   2   1.0000      -0.429624       -11.6907
   3   1.0000      -0.397627       -10.8200
   4   0.0000      -0.077453        -2.1076
   5   0.0000       0.004022         0.1094
   6   0.0000       0.035030         0.9532
   7   0.0000       0.037626         1.0239
   8   0.0000       0.060717         1.6522

MULLIKEN ATOMIC CHARGES AND SPIN POPULATIONS
--------------------------------------------
   0 C :   -0.428078    1.103367
   1 H :    0.146663   -0.031634
   2 H :    0.132768   -0.039045
   3 H :    0.148647   -0.032688
Sum of atomic charges         :    0.0000000

LOEWDIN ATOMIC CHARGES AND SPIN POPULATIONS
-------------------------------------------
   0 C :   -0.144769    0.906264
   1 H :    0.023069    0.039741
   2 H :    0.077448    0.020887
   3 H :    0.044251    0.033109

  Mayer bond orders larger than 0.100000
B(  0-C ,  1-H ) :   0.9778 B(  0-C ,  2-H ) :   0.9787 B(  0-C ,  3-H ) :   0.9771

FINAL SINGLE POINT ENERGY       -39.823635477647

DIPOLE MOMENT
-------------
                                X             Y             Z
Electronic contribution:     -0.12652      -0.05130       0.04088
Nuclear contribution   :      0.12350       0.03926      -0.04681
                        -----------------------------------------
Total Dipole Moment    :     -0.00303      -0.01204      -0.00592
                        -----------------------------------------
Magnitude (a.u.)       :      0.01376
Magnitude (Debye)      :      0.03497

Rotational constants in cm-1:    10.345978     8.891498     4.781990
Rotational constants in MHz : 310164.629834 266560.416261 143360.461835

                             ****ORCA TERMINATED NORMALLY****
TOTAL RUN TIME: 0 days 0 hours 0 minutes 21 seconds 664 msec
