                         Program Version 5.0.3 -  RELEASE  -
|  1> !B3LYP EPR-III Autoaux
|  2> !PAL4
|  3>
|  4> * xyz 0 2
|  5>  C    -44.9966448430    -65.6383475613    -21.9090526384
|  6>  H    -45.6597761175    -64.7713150352    -21.9313541257
|  7>  H    -45.6202650294    -66.5954792560    -22.0201004931
|  8>  H    -43.9238207481    -65.4609639406    -21.8647147291
|  9> *
| 10>
| 11> %EPRNMR
| 12>         GTENSOR   TRUE
| 13>         NUCLEI    = ALL H {AISO, ADIP, AORB}
| 14>         NUCLEI    = ALL C {AISO, ADIP, AORB}
| 15> END
| 16>
| 17>
| 18>                          ****END OF INPUT****

CARTESIAN COORDINATES (ANGSTROEM)
---------------------------------
  C    -44.996645  -65.638348  -21.909053
  H    -45.659776  -64.771315  -21.931354
  H    -45.620265  -66.595479  -22.020100
  H    -43.923821  -65.460964  -21.864715

 Total Charge           Charge          ....    0
 Multiplicity           Mult            ....    2
 Number of Electrons    NEL             ....    9
 Basis Dimension        Dim             ....   73

ORBITAL ENERGIES
----------------
                 SPIN UP ORBITALS
  NO   OCC          E(Eh)            E(eV)
   0   1.0000     -10.192907      -277.3631
   1   1.0000      -0.680934       -18.5291
   2   1.0000      -0.433888       -11.8067
   3   1.0000      -0.397638       -10.8203
   4   1.0000      -0.235143        -6.3986
   5   0.0000      -0.000389        -0.0106
   6   0.0000       0.034277         0.9327
   7   0.0000       0.038789         1.0555
   8   0.0000       0.047317         1.2876
   9   0.0000       0.076021         2.0686

                 SPIN DOWN ORBITALS
  NO   OCC          E(Eh)            E(eV)
   0   1.0000     -10.178287      -276.9653
   1   1.0000      -0.641275       -17.4500
   2   1.0000      -0.424985       -11.5644
   3   1.0000      -0.388073       -10.5600
   4   0.0000      -0.077237        -2.1017
   5   0.0000       0.003089         0.0841
   6   0.0000       0.034017         0.9257
   7   0.0000       0.038429         1.0457
   8   0.0000       0.060643         1.6502

MULLIKEN ATOMIC CHARGES AND SPIN POPULATIONS
--------------------------------------------
   0 C :   -0.431554    1.109981
   1 H :    0.134233   -0.036054
   2 H :    0.144248   -0.039843
   3 H :    0.153074   -0.034084
Sum of atomic charges         :   -0.0000000

LOEWDIN ATOMIC CHARGES AND SPIN POPULATIONS
-------------------------------------------
   0 C :   -0.176430    0.920473
   1 H :    0.048306    0.029735
   2 H :    0.076772    0.020172
   3 H :    0.051351    0.029620

  Mayer bond orders larger than 0.100000
B(  0-C ,  1-H ) :   0.9755 B(  0-C ,  2-H ) :   0.9730 B(  0-C ,  3-H ) :   0.9723

FINAL SINGLE POINT ENERGY       -39.822209442916

DIPOLE MOMENT
-------------
                                X             Y             Z
Electronic contribution:      0.14617      -0.04364       0.04447
Nuclear contribution   :     -0.16033       0.06542      -0.06671
                        -----------------------------------------
Total Dipole Moment    :     -0.01417       0.02178      -0.02224
                        -----------------------------------------
Magnitude (a.u.)       :      0.03420
Magnitude (Debye)      :      0.08693

Rotational constants in cm-1:    10.551328     7.939876     4.534823
Rotational constants in MHz : 316320.856810 238031.486992 135950.562073

                             ****ORCA TERMINATED NORMALLY****
TOTAL RUN TIME: 0 days 0 hours 0 minutes 19 seconds 477 msec
