                         Program Version 5.0.3 -  RELEASE  -
|  1> !B3LYP EPR-III Autoaux
|  2> !PAL4
|  3>
|  4> * xyz 0 2
|  5>  C      3.0378539871    -11.4296459499     -9.5967829058
|  6>  H      2.6625343556    -12.4388790953     -9.8907138692
|  7>  H      3.5997606248    -10.9358626191    -10.3575707235
|  8>  H      2.7864195577    -10.9175505473     -8.6724306025
|  9> *
| 10>
| 11> %EPRNMR
| 12>         GTENSOR   TRUE
| 13>         NUCLEI    = ALL H {AISO, ADIP, AORB}
| 14>         NUCLEI    = ALL C {AISO, ADIP, AORB}
| 15> END
| 16>
| 17>
| 18>                          ****END OF INPUT****

CARTESIAN COORDINATES (ANGSTROEM)
---------------------------------
  C      3.037854  -11.429646   -9.596783
  H      2.662534  -12.438879   -9.890714
  H      3.599761  -10.935863  -10.357571
  H      2.786420  -10.917551   -8.672431

 Total Charge           Charge          ....    0
 Multiplicity           Mult            ....    2
 Number of Electrons    NEL             ....    9
 Basis Dimension        Dim             ....   73

ORBITAL ENERGIES
----------------
                 SPIN UP ORBITALS
  NO   OCC          E(Eh)            E(eV)
   0   1.0000     -10.187063      -277.2041
   1   1.0000      -0.685293       -18.6478
   2   1.0000      -0.429167       -11.6782
   3   1.0000      -0.411827       -11.2064
   4   1.0000      -0.235014        -6.3951
   5   0.0000       0.000633         0.0172
   6   0.0000       0.035732         0.9723
   7   0.0000       0.037753         1.0273
   8   0.0000       0.047444         1.2910
   9   0.0000       0.085479         2.3260

                 SPIN DOWN ORBITALS
  NO   OCC          E(Eh)            E(eV)
   0   1.0000     -10.172572      -276.8097
   1   1.0000      -0.645806       -17.5733
   2   1.0000      -0.419894       -11.4259
   3   1.0000      -0.402312       -10.9475
   4   0.0000      -0.077377        -2.1055
   5   0.0000       0.003854         0.1049
   6   0.0000       0.035392         0.9631
   7   0.0000       0.037367         1.0168
   8   0.0000       0.060719         1.6522

MULLIKEN ATOMIC CHARGES AND SPIN POPULATIONS
--------------------------------------------
   0 C :   -0.427066    1.104514
   1 H :    0.139855   -0.036781
   2 H :    0.140343   -0.033789
   3 H :    0.146868   -0.033944
Sum of atomic charges         :   -0.0000000

LOEWDIN ATOMIC CHARGES AND SPIN POPULATIONS
-------------------------------------------
   0 C :   -0.158124    0.911562
   1 H :    0.064991    0.025188
   2 H :    0.040864    0.033390
   3 H :    0.052269    0.029860

  Mayer bond orders larger than 0.100000
B(  0-C ,  1-H ) :   0.9763 B(  0-C ,  2-H ) :   0.9768 B(  0-C ,  3-H ) :   0.9754

FINAL SINGLE POINT ENERGY       -39.827024917244

DIPOLE MOMENT
-------------
                                X             Y             Z
Electronic contribution:      0.03111       0.01884       0.07641
Nuclear contribution   :     -0.04860      -0.00251      -0.09771
                        -----------------------------------------
Total Dipole Moment    :     -0.01749       0.01633      -0.02130
                        -----------------------------------------
Magnitude (a.u.)       :      0.03204
Magnitude (Debye)      :      0.08143

Rotational constants in cm-1:    10.157150     8.714627     4.698098
Rotational constants in MHz : 304503.688991 261257.937574 140845.421195

                             ****ORCA TERMINATED NORMALLY****
TOTAL RUN TIME: 0 days 0 hours 0 minutes 29 seconds 471 msec
