                         Program Version 5.0.3 -  RELEASE  -
|  1> !B3LYP EPR-III Autoaux
|  2> !PAL4
|  3>
|  4> * xyz 0 2
|  5>  C    -78.8209120804   -104.9074732460    -30.0803518683
|  6>  H    -77.7040367609   -104.9888076099    -30.0773870058
|  7>  H    -79.2458663901   -103.8767136865    -30.0150242941
|  8>  H    -79.2168051265   -105.9844080974    -30.1974683290
|  9> *
| 10>
| 11> %EPRNMR
| 12>         GTENSOR   TRUE
| 13>         NUCLEI    = ALL H {AISO, ADIP, AORB}
| 14>         NUCLEI    = ALL C {AISO, ADIP, AORB}
| 15> END
| 16>
| 17>
| 18>                          ****END OF INPUT****

CARTESIAN COORDINATES (ANGSTROEM)
---------------------------------
  C    -78.820912  -104.907473  -30.080352
  H    -77.704037  -104.988808  -30.077387
  H    -79.245866  -103.876714  -30.015024
  H    -79.216805  -105.984408  -30.197468

 Total Charge           Charge          ....    0
 Multiplicity           Mult            ....    2
 Number of Electrons    NEL             ....    9
 Basis Dimension        Dim             ....   73

ORBITAL ENERGIES
----------------
                 SPIN UP ORBITALS
  NO   OCC          E(Eh)            E(eV)
   0   1.0000     -10.199037      -277.5299
   1   1.0000      -0.675937       -18.3932
   2   1.0000      -0.434197       -11.8151
   3   1.0000      -0.387425       -10.5424
   4   1.0000      -0.235244        -6.4013
   5   0.0000      -0.001643        -0.0447
   6   0.0000       0.033260         0.9051
   7   0.0000       0.039407         1.0723
   8   0.0000       0.047189         1.2841
   9   0.0000       0.068813         1.8725

                 SPIN DOWN ORBITALS
  NO   OCC          E(Eh)            E(eV)
   0   1.0000     -10.184279      -277.1283
   1   1.0000      -0.636079       -17.3086
   2   1.0000      -0.425686       -11.5835
   3   1.0000      -0.377823       -10.2811
   4   0.0000      -0.077060        -2.0969
   5   0.0000       0.002161         0.0588
   6   0.0000       0.033069         0.8998
   7   0.0000       0.039070         1.0632
   8   0.0000       0.060573         1.6483

MULLIKEN ATOMIC CHARGES AND SPIN POPULATIONS
--------------------------------------------
   0 C :   -0.436569    1.115851
   1 H :    0.129371   -0.038251
   2 H :    0.157559   -0.036344
   3 H :    0.149639   -0.041256
Sum of atomic charges         :    0.0000000

LOEWDIN ATOMIC CHARGES AND SPIN POPULATIONS
-------------------------------------------
   0 C :   -0.196923    0.930144
   1 H :    0.056440    0.025604
   2 H :    0.062993    0.025005
   3 H :    0.077490    0.019248

  Mayer bond orders larger than 0.100000
B(  0-C ,  1-H ) :   0.9739 B(  0-C ,  2-H ) :   0.9679 B(  0-C ,  3-H ) :   0.9696

FINAL SINGLE POINT ENERGY       -39.816962042574

DIPOLE MOMENT
-------------
                                X             Y             Z
Electronic contribution:     -0.18967       0.09374       0.02496
Nuclear contribution   :      0.22187      -0.09557      -0.03659
                        -----------------------------------------
Total Dipole Moment    :      0.03219      -0.00182      -0.01163
                        -----------------------------------------
Magnitude (a.u.)       :      0.03428
Magnitude (Debye)      :      0.08713

Rotational constants in cm-1:    10.679650     7.403145     4.373445
Rotational constants in MHz : 320167.843544 221940.714204 131112.583371

                             ****ORCA TERMINATED NORMALLY****
TOTAL RUN TIME: 0 days 0 hours 0 minutes 19 seconds 639 msec
