                         Program Version 5.0.3 -  RELEASE  -
|  1> !B3LYP EPR-III Autoaux
|  2> !PAL4
|  3>
|  4> * xyz 0 2
|  5>  C    -85.5716423368   -113.2588197723    -31.7103185994
|  6>  H    -84.6160102138   -113.8033611416    -31.7157153438
|  7>  H    -85.6513008190   -112.1637045329    -31.6097699707
|  8>  H    -86.5601089156   -113.7149539612    -31.7807461701
|  9> *
| 10>
| 11> %EPRNMR
| 12>         GTENSOR   TRUE
| 13>         NUCLEI    = ALL H {AISO, ADIP, AORB}
| 14>         NUCLEI    = ALL C {AISO, ADIP, AORB}
| 15> END
| 16>
| 17>
| 18>                          ****END OF INPUT****

CARTESIAN COORDINATES (ANGSTROEM)
---------------------------------
  C    -85.571642  -113.258820  -31.710319
  H    -84.616010  -113.803361  -31.715715
  H    -85.651301  -112.163705  -31.609770
  H    -86.560109  -113.714954  -31.780746

 Total Charge           Charge          ....    0
 Multiplicity           Mult            ....    2
 Number of Electrons    NEL             ....    9
 Basis Dimension        Dim             ....   73

ORBITAL ENERGIES
----------------
                 SPIN UP ORBITALS
  NO   OCC          E(Eh)            E(eV)
   0   1.0000     -10.189533      -277.2713
   1   1.0000      -0.683077       -18.5875
   2   1.0000      -0.431587       -11.7441
   3   1.0000      -0.405808       -11.0426
   4   1.0000      -0.234787        -6.3889
   5   0.0000       0.000344         0.0094
   6   0.0000       0.035162         0.9568
   7   0.0000       0.038169         1.0386
   8   0.0000       0.047404         1.2899
   9   0.0000       0.085764         2.3338

                 SPIN DOWN ORBITALS
  NO   OCC          E(Eh)            E(eV)
   0   1.0000     -10.174999      -276.8758
   1   1.0000      -0.643467       -17.5096
   2   1.0000      -0.422497       -11.4967
   3   1.0000      -0.396298       -10.7838
   4   0.0000      -0.077163        -2.0997
   5   0.0000       0.003659         0.0996
   6   0.0000       0.034850         0.9483
   7   0.0000       0.037781         1.0281
   8   0.0000       0.060713         1.6521

MULLIKEN ATOMIC CHARGES AND SPIN POPULATIONS
--------------------------------------------
   0 C :   -0.428761    1.107071
   1 H :    0.149767   -0.034739
   2 H :    0.138119   -0.036561
   3 H :    0.140875   -0.035771
Sum of atomic charges         :   -0.0000000

LOEWDIN ATOMIC CHARGES AND SPIN POPULATIONS
-------------------------------------------
   0 C :   -0.166330    0.915413
   1 H :    0.057978    0.027587
   2 H :    0.056702    0.027583
   3 H :    0.051649    0.029417

  Mayer bond orders larger than 0.100000
B(  0-C ,  1-H ) :   0.9733 B(  0-C ,  2-H ) :   0.9761 B(  0-C ,  3-H ) :   0.9757

FINAL SINGLE POINT ENERGY       -39.826352802131

DIPOLE MOMENT
-------------
                                X             Y             Z
Electronic contribution:      0.07463      -0.06573      -0.01272
Nuclear contribution   :     -0.08431       0.07078       0.01853
                        -----------------------------------------
Total Dipole Moment    :     -0.00968       0.00505       0.00581
                        -----------------------------------------
Magnitude (a.u.)       :      0.01237
Magnitude (Debye)      :      0.03143

Rotational constants in cm-1:    10.253659     8.432696     4.627512
Rotational constants in MHz : 307396.954990 252805.852740 138729.315176

                             ****ORCA TERMINATED NORMALLY****
TOTAL RUN TIME: 0 days 0 hours 0 minutes 21 seconds 342 msec
