                         Program Version 5.0.3 -  RELEASE  -
|  1> !B3LYP EPR-III Autoaux
|  2> !PAL4
|  3>
|  4> * xyz 0 2
|  5>  C     -8.4306930268    -24.5071240290    -12.5831460594
|  6>  H     -8.5062787153    -25.4814403348    -12.8433182616
|  7>  H     -7.7151516209    -23.7602411041    -13.0363950916
|  8>  H     -8.9700047868    -24.0738393094    -11.7394407650
|  9> *
| 10>
| 11> %EPRNMR
| 12>         GTENSOR   TRUE
| 13>         NUCLEI    = ALL H {AISO, ADIP, AORB}
| 14>         NUCLEI    = ALL C {AISO, ADIP, AORB}
| 15> END
| 16>
| 17>
| 18>                          ****END OF INPUT****

CARTESIAN COORDINATES (ANGSTROEM)
---------------------------------
  C     -8.430693  -24.507124  -12.583146
  H     -8.506279  -25.481440  -12.843318
  H     -7.715152  -23.760241  -13.036395
  H     -8.970005  -24.073839  -11.739441

 Total Charge           Charge          ....    0
 Multiplicity           Mult            ....    2
 Number of Electrons    NEL             ....    9
 Basis Dimension        Dim             ....   73

ORBITAL ENERGIES
----------------
                 SPIN UP ORBITALS
  NO   OCC          E(Eh)            E(eV)
   0   1.0000     -10.183366      -277.1035
   1   1.0000      -0.689840       -18.7715
   2   1.0000      -0.443804       -12.0765
   3   1.0000      -0.403121       -10.9695
   4   1.0000      -0.235349        -6.4042
   5   0.0000       0.000980         0.0267
   6   0.0000       0.034888         0.9494
   7   0.0000       0.038477         1.0470
   8   0.0000       0.047465         1.2916
   9   0.0000       0.084947         2.3115

                 SPIN DOWN ORBITALS
  NO   OCC          E(Eh)            E(eV)
   0   1.0000     -10.168928      -276.7106
   1   1.0000      -0.650437       -17.6993
   2   1.0000      -0.434116       -11.8129
   3   1.0000      -0.393769       -10.7150
   4   0.0000      -0.077699        -2.1143
   5   0.0000       0.004082         0.1111
   6   0.0000       0.034541         0.9399
   7   0.0000       0.038092         1.0365
   8   0.0000       0.060685         1.6513

MULLIKEN ATOMIC CHARGES AND SPIN POPULATIONS
--------------------------------------------
   0 C :   -0.428583    1.102483
   1 H :    0.154021   -0.028784
   2 H :    0.136907   -0.038083
   3 H :    0.137655   -0.035616
Sum of atomic charges         :   -0.0000000

LOEWDIN ATOMIC CHARGES AND SPIN POPULATIONS
-------------------------------------------
   0 C :   -0.142924    0.905381
   1 H :    0.014698    0.042598
   2 H :    0.072739    0.022926
   3 H :    0.055487    0.029095

  Mayer bond orders larger than 0.100000
B(  0-C ,  1-H ) :   0.9778 B(  0-C ,  2-H ) :   0.9784 B(  0-C ,  3-H ) :   0.9789

FINAL SINGLE POINT ENERGY       -39.822570064589

DIPOLE MOMENT
-------------
                                X             Y             Z
Electronic contribution:     -0.05888      -0.15628      -0.07162
Nuclear contribution   :      0.07543       0.15428       0.09765
                        -----------------------------------------
Total Dipole Moment    :      0.01655      -0.00200       0.02603
                        -----------------------------------------
Magnitude (a.u.)       :      0.03091
Magnitude (Debye)      :      0.07856

Rotational constants in cm-1:    10.102777     9.133124     4.804352
Rotational constants in MHz : 302873.620030 273804.173850 144030.834614

                             ****ORCA TERMINATED NORMALLY****
TOTAL RUN TIME: 0 days 0 hours 0 minutes 24 seconds 292 msec
