                         Program Version 5.0.3 -  RELEASE  -
|  1> !B3LYP EPR-III Autoaux
|  2> !PAL4
|  3>
|  4> * xyz 0 2
|  5>  C    -33.8549744518    -53.1590631977    -19.0965904708
|  6>  H    -34.1049653506    -54.1498026566    -19.0289410547
|  7>  H    -32.8474199649    -52.6983084475    -19.2302396551
|  8>  H    -34.5825190976    -52.3987494584    -18.9446465704
|  9> *
| 10>
| 11> %EPRNMR
| 12>         GTENSOR   TRUE
| 13>         NUCLEI    = ALL H {AISO, ADIP, AORB}
| 14>         NUCLEI    = ALL C {AISO, ADIP, AORB}
| 15> END
| 16>
| 17>
| 18>                          ****END OF INPUT****

CARTESIAN COORDINATES (ANGSTROEM)
---------------------------------
  C    -33.854974  -53.159063  -19.096590
  H    -34.104965  -54.149803  -19.028941
  H    -32.847420  -52.698308  -19.230240
  H    -34.582519  -52.398749  -18.944647

 Total Charge           Charge          ....    0
 Multiplicity           Mult            ....    2
 Number of Electrons    NEL             ....    9
 Basis Dimension        Dim             ....   73

ORBITAL ENERGIES
----------------
                 SPIN UP ORBITALS
  NO   OCC          E(Eh)            E(eV)
   0   1.0000     -10.180459      -277.0244
   1   1.0000      -0.692131       -18.8339
   2   1.0000      -0.445188       -12.1142
   3   1.0000      -0.405233       -11.0269
   4   1.0000      -0.235142        -6.3985
   5   0.0000       0.001249         0.0340
   6   0.0000       0.034736         0.9452
   7   0.0000       0.038669         1.0522
   8   0.0000       0.047523         1.2932
   9   0.0000       0.084998         2.3129

                 SPIN DOWN ORBITALS
  NO   OCC          E(Eh)            E(eV)
   0   1.0000     -10.166083      -276.6332
   1   1.0000      -0.652874       -17.7656
   2   1.0000      -0.435602       -11.8533
   3   1.0000      -0.395554       -10.7636
   4   0.0000      -0.077706        -2.1145
   5   0.0000       0.004273         0.1163
   6   0.0000       0.034379         0.9355
   7   0.0000       0.038243         1.0406
   8   0.0000       0.060724         1.6524

MULLIKEN ATOMIC CHARGES AND SPIN POPULATIONS
--------------------------------------------
   0 C :   -0.429657    1.101297
   1 H :    0.153247   -0.029610
   2 H :    0.139586   -0.037507
   3 H :    0.136825   -0.034181
Sum of atomic charges         :    0.0000000

LOEWDIN ATOMIC CHARGES AND SPIN POPULATIONS
-------------------------------------------
   0 C :   -0.137008    0.901565
   1 H :    0.024357    0.040007
   2 H :    0.069464    0.024753
   3 H :    0.043188    0.033676

  Mayer bond orders larger than 0.100000
B(  0-C ,  1-H ) :   0.9791 B(  0-C ,  2-H ) :   0.9795 B(  0-C ,  3-H ) :   0.9803

FINAL SINGLE POINT ENERGY       -39.823301516730

DIPOLE MOMENT
-------------
                                X             Y             Z
Electronic contribution:     -0.03004      -0.15728      -0.03718
Nuclear contribution   :      0.02250       0.17263       0.06441
                        -----------------------------------------
Total Dipole Moment    :     -0.00754       0.01535       0.02723
                        -----------------------------------------
Magnitude (a.u.)       :      0.03216
Magnitude (Debye)      :      0.08173

Rotational constants in cm-1:    10.845992     8.893391     4.892526
Rotational constants in MHz : 325154.659156 266617.153296 146674.251030

                             ****ORCA TERMINATED NORMALLY****
TOTAL RUN TIME: 0 days 0 hours 0 minutes 22 seconds 356 msec
