                         Program Version 5.0.3 -  RELEASE  -
|  1> !B3LYP EPR-III Autoaux
|  2> !PAL4
|  3>
|  4> * xyz 0 2
|  5>  C      8.0715353082     -5.7244491032     -8.2989223831
|  6>  H      8.7610219568     -5.5352898569     -7.6168983837
|  7>  H      7.7915598127     -5.0601277334     -9.1293959501
|  8>  H      7.5349222173     -6.6184860654     -8.1425239102
|  9> *
| 10>
| 11> %EPRNMR
| 12>         GTENSOR   TRUE
| 13>         NUCLEI    = ALL H {AISO, ADIP, AORB}
| 14>         NUCLEI    = ALL C {AISO, ADIP, AORB}
| 15> END
| 16>
| 17>
| 18>                          ****END OF INPUT****

CARTESIAN COORDINATES (ANGSTROEM)
---------------------------------
  C      8.071535   -5.724449   -8.298922
  H      8.761022   -5.535290   -7.616898
  H      7.791560   -5.060128   -9.129396
  H      7.534922   -6.618486   -8.142524

 Total Charge           Charge          ....    0
 Multiplicity           Mult            ....    2
 Number of Electrons    NEL             ....    9
 Basis Dimension        Dim             ....   73

ORBITAL ENERGIES
----------------
                 SPIN UP ORBITALS
  NO   OCC          E(Eh)            E(eV)
   0   1.0000     -10.173778      -276.8426
   1   1.0000      -0.698238       -19.0000
   2   1.0000      -0.439148       -11.9498
   3   1.0000      -0.420216       -11.4347
   4   1.0000      -0.234834        -6.3902
   5   0.0000       0.001782         0.0485
   6   0.0000       0.035909         0.9771
   7   0.0000       0.037731         1.0267
   8   0.0000       0.047642         1.2964
   9   0.0000       0.089421         2.4333

                 SPIN DOWN ORBITALS
  NO   OCC          E(Eh)            E(eV)
   0   1.0000     -10.159517      -276.4545
   1   1.0000      -0.659222       -17.9384
   2   1.0000      -0.429169       -11.6783
   3   1.0000      -0.410447       -11.1688
   4   0.0000      -0.077701        -2.1143
   5   0.0000       0.004666         0.1270
   6   0.0000       0.035520         0.9665
   7   0.0000       0.037269         1.0141
   8   0.0000       0.060803         1.6545

MULLIKEN ATOMIC CHARGES AND SPIN POPULATIONS
--------------------------------------------
   0 C :   -0.430470    1.097397
   1 H :    0.150023   -0.029023
   2 H :    0.142917   -0.035172
   3 H :    0.137530   -0.033202
Sum of atomic charges         :   -0.0000000

LOEWDIN ATOMIC CHARGES AND SPIN POPULATIONS
-------------------------------------------
   0 C :   -0.116511    0.891941
   1 H :    0.006241    0.046411
   2 H :    0.066687    0.026872
   3 H :    0.043583    0.034777

  Mayer bond orders larger than 0.100000
B(  0-C ,  1-H ) :   0.9816 B(  0-C ,  2-H ) :   0.9807 B(  0-C ,  3-H ) :   0.9827

FINAL SINGLE POINT ENERGY       -39.820767441984

DIPOLE MOMENT
-------------
                                X             Y             Z
Electronic contribution:      0.08310       0.03123       0.01490
Nuclear contribution   :     -0.09526      -0.03040       0.00596
                        -----------------------------------------
Total Dipole Moment    :     -0.01216       0.00083       0.02086
                        -----------------------------------------
Magnitude (a.u.)       :      0.02416
Magnitude (Debye)      :      0.06141

Rotational constants in cm-1:    11.291101     9.207187     5.075613
Rotational constants in MHz : 338498.689122 276024.517091 152163.039135

                             ****ORCA TERMINATED NORMALLY****
TOTAL RUN TIME: 0 days 0 hours 0 minutes 22 seconds 989 msec
