                         Program Version 5.0.3 -  RELEASE  -
|  1> !B3LYP EPR-III Autoaux
|  2> !PAL4
|  3>
|  4> * xyz 0 2
|  5>  C      8.9047004493     -4.7861085259     -8.0735732962
|  6>  H      7.8199050931     -4.6723134084     -8.2423414481
|  7>  H      9.4800167783     -4.9975811885     -8.9629408946
|  8>  H      9.4170778608     -4.5191234336     -7.1567789391
|  9> *
| 10>
| 11> %EPRNMR
| 12>         GTENSOR   TRUE
| 13>         NUCLEI    = ALL H {AISO, ADIP, AORB}
| 14>         NUCLEI    = ALL C {AISO, ADIP, AORB}
| 15> END
| 16>
| 17>
| 18>                          ****END OF INPUT****

CARTESIAN COORDINATES (ANGSTROEM)
---------------------------------
  C      8.904700   -4.786109   -8.073573
  H      7.819905   -4.672313   -8.242341
  H      9.480017   -4.997581   -8.962941
  H      9.417078   -4.519123   -7.156779

 Total Charge           Charge          ....    0
 Multiplicity           Mult            ....    2
 Number of Electrons    NEL             ....    9
 Basis Dimension        Dim             ....   73

ORBITAL ENERGIES
----------------
                 SPIN UP ORBITALS
  NO   OCC          E(Eh)            E(eV)
   0   1.0000     -10.187041      -277.2035
   1   1.0000      -0.685387       -18.6503
   2   1.0000      -0.428336       -11.6556
   3   1.0000      -0.412465       -11.2237
   4   1.0000      -0.235794        -6.4163
   5   0.0000       0.000675         0.0184
   6   0.0000       0.035893         0.9767
   7   0.0000       0.037746         1.0271
   8   0.0000       0.047427         1.2905
   9   0.0000       0.086810         2.3622

                 SPIN DOWN ORBITALS
  NO   OCC          E(Eh)            E(eV)
   0   1.0000     -10.172537      -276.8088
   1   1.0000      -0.646041       -17.5797
   2   1.0000      -0.419020       -11.4021
   3   1.0000      -0.402889       -10.9632
   4   0.0000      -0.077812        -2.1174
   5   0.0000       0.003847         0.1047
   6   0.0000       0.035553         0.9674
   7   0.0000       0.037362         1.0167
   8   0.0000       0.060668         1.6509

MULLIKEN ATOMIC CHARGES AND SPIN POPULATIONS
--------------------------------------------
   0 C :   -0.425441    1.102595
   1 H :    0.141014   -0.035233
   2 H :    0.138487   -0.034080
   3 H :    0.145939   -0.033282
Sum of atomic charges         :   -0.0000000

LOEWDIN ATOMIC CHARGES AND SPIN POPULATIONS
-------------------------------------------
   0 C :   -0.157967    0.911169
   1 H :    0.059607    0.027233
   2 H :    0.047476    0.031207
   3 H :    0.050884    0.030390

  Mayer bond orders larger than 0.100000
B(  0-C ,  1-H ) :   0.9763 B(  0-C ,  2-H ) :   0.9771 B(  0-C ,  3-H ) :   0.9757

FINAL SINGLE POINT ENERGY       -39.827628132433

DIPOLE MOMENT
-------------
                                X             Y             Z
Electronic contribution:      0.00618      -0.07592       0.08322
Nuclear contribution   :      0.00217       0.12689      -0.10593
                        -----------------------------------------
Total Dipole Moment    :      0.00835       0.05098      -0.02271
                        -----------------------------------------
Magnitude (a.u.)       :      0.05643
Magnitude (Debye)      :      0.14343

Rotational constants in cm-1:     9.996021     8.832426     4.717049
Rotational constants in MHz : 299673.169906 264789.456265 141413.574059

                             ****ORCA TERMINATED NORMALLY****
TOTAL RUN TIME: 0 days 0 hours 0 minutes 23 seconds 170 msec
