                         Program Version 5.0.3 -  RELEASE  -
|  1> !B3LYP EPR-III Autoaux
|  2> !PAL4
|  3>
|  4> * xyz 0 2
|  5>  C    -15.3253075146    -32.3243269707    -14.3582870854
|  6>  H    -16.3882640696    -32.5207439703    -13.8913914441
|  7>  H    -14.7662298836    -32.8556437081    -15.0749733457
|  8>  H    -15.0065103407    -31.3439446844    -14.1246167444
|  9> *
| 10>
| 11> %EPRNMR
| 12>         GTENSOR   TRUE
| 13>         NUCLEI    = ALL H {AISO, ADIP, AORB}
| 14>         NUCLEI    = ALL C {AISO, ADIP, AORB}
| 15> END
| 16>
| 17>
| 18>                          ****END OF INPUT****

CARTESIAN COORDINATES (ANGSTROEM)
---------------------------------
  C    -15.325308  -32.324327  -14.358287
  H    -16.388264  -32.520744  -13.891391
  H    -14.766230  -32.855644  -15.074973
  H    -15.006510  -31.343945  -14.124617

 Total Charge           Charge          ....    0
 Multiplicity           Mult            ....    2
 Number of Electrons    NEL             ....    9
 Basis Dimension        Dim             ....   73

ORBITAL ENERGIES
----------------
                 SPIN UP ORBITALS
  NO   OCC          E(Eh)            E(eV)
   0   1.0000     -10.188695      -277.2485
   1   1.0000      -0.686234       -18.6734
   2   1.0000      -0.436929       -11.8894
   3   1.0000      -0.399593       -10.8735
   4   1.0000      -0.236218        -6.4278
   5   0.0000      -0.000140        -0.0038
   6   0.0000       0.034377         0.9354
   7   0.0000       0.038779         1.0552
   8   0.0000       0.047340         1.2882
   9   0.0000       0.075090         2.0433

                 SPIN DOWN ORBITALS
  NO   OCC          E(Eh)            E(eV)
   0   1.0000     -10.174121      -276.8519
   1   1.0000      -0.646953       -17.6045
   2   1.0000      -0.427597       -11.6355
   3   1.0000      -0.389944       -10.6109
   4   0.0000      -0.077974        -2.1218
   5   0.0000       0.003191         0.0868
   6   0.0000       0.034137         0.9289
   7   0.0000       0.038437         1.0459
   8   0.0000       0.060567         1.6481

MULLIKEN ATOMIC CHARGES AND SPIN POPULATIONS
--------------------------------------------
   0 C :   -0.429719    1.105387
   1 H :    0.140550   -0.040882
   2 H :    0.152419   -0.031047
   3 H :    0.136750   -0.033458
Sum of atomic charges         :   -0.0000000

LOEWDIN ATOMIC CHARGES AND SPIN POPULATIONS
-------------------------------------------
   0 C :   -0.160278    0.913488
   1 H :    0.090328    0.015734
   2 H :    0.035723    0.035544
   3 H :    0.034228    0.035234

  Mayer bond orders larger than 0.100000
B(  0-C ,  1-H ) :   0.9747 B(  0-C ,  2-H ) :   0.9755 B(  0-C ,  3-H ) :   0.9769

FINAL SINGLE POINT ENERGY       -39.819097660063

DIPOLE MOMENT
-------------
                                X             Y             Z
Electronic contribution:      0.12641      -0.13623      -0.02614
Nuclear contribution   :     -0.13872       0.18936      -0.01208
                        -----------------------------------------
Total Dipole Moment    :     -0.01231       0.05313      -0.03822
                        -----------------------------------------
Magnitude (a.u.)       :      0.06659
Magnitude (Debye)      :      0.16926

Rotational constants in cm-1:    10.972837     7.991345     4.652463
Rotational constants in MHz : 328957.375938 239574.504604 139477.337046

                             ****ORCA TERMINATED NORMALLY****
TOTAL RUN TIME: 0 days 0 hours 0 minutes 19 seconds 887 msec
