                         Program Version 5.0.3 -  RELEASE  -
|  1> !B3LYP EPR-III Autoaux
|  2> !PAL4
|  3>
|  4> * xyz 0 2
|  5>  C    -30.3611553099    -49.1945446909    -18.2130135409
|  6>  H    -29.8251022619    -48.2008324502    -18.2415193579
|  7>  H    -31.3905663500    -49.4798311902    -17.9894416933
|  8>  H    -29.7786251906    -50.1227732984    -18.4041209054
|  9> *
| 10>
| 11> %EPRNMR
| 12>         GTENSOR   TRUE
| 13>         NUCLEI    = ALL H {AISO, ADIP, AORB}
| 14>         NUCLEI    = ALL C {AISO, ADIP, AORB}
| 15> END
| 16>
| 17>
| 18>                          ****END OF INPUT****

CARTESIAN COORDINATES (ANGSTROEM)
---------------------------------
  C    -30.361155  -49.194545  -18.213014
  H    -29.825102  -48.200832  -18.241519
  H    -31.390566  -49.479831  -17.989442
  H    -29.778625  -50.122773  -18.404121

 Total Charge           Charge          ....    0
 Multiplicity           Mult            ....    2
 Number of Electrons    NEL             ....    9
 Basis Dimension        Dim             ....   73

ORBITAL ENERGIES
----------------
                 SPIN UP ORBITALS
  NO   OCC          E(Eh)            E(eV)
   0   1.0000     -10.193478      -277.3786
   1   1.0000      -0.680407       -18.5148
   2   1.0000      -0.433529       -11.7969
   3   1.0000      -0.396915       -10.8006
   4   1.0000      -0.234995        -6.3945
   5   0.0000      -0.000416        -0.0113
   6   0.0000       0.034206         0.9308
   7   0.0000       0.038818         1.0563
   8   0.0000       0.047315         1.2875
   9   0.0000       0.076921         2.0931

                 SPIN DOWN ORBITALS
  NO   OCC          E(Eh)            E(eV)
   0   1.0000     -10.178853      -276.9807
   1   1.0000      -0.640749       -17.4357
   2   1.0000      -0.424692       -11.5565
   3   1.0000      -0.387301       -10.5390
   4   0.0000      -0.077139        -2.0991
   5   0.0000       0.003082         0.0839
   6   0.0000       0.033963         0.9242
   7   0.0000       0.038441         1.0460
   8   0.0000       0.060652         1.6504

MULLIKEN ATOMIC CHARGES AND SPIN POPULATIONS
--------------------------------------------
   0 C :   -0.432295    1.110871
   1 H :    0.153184   -0.037047
   2 H :    0.147699   -0.036301
   3 H :    0.131411   -0.037522
Sum of atomic charges         :    0.0000000

LOEWDIN ATOMIC CHARGES AND SPIN POPULATIONS
-------------------------------------------
   0 C :   -0.179222    0.921478
   1 H :    0.070480    0.022812
   2 H :    0.051360    0.029253
   3 H :    0.057382    0.026456

  Mayer bond orders larger than 0.100000
B(  0-C ,  1-H ) :   0.9704 B(  0-C ,  2-H ) :   0.9735 B(  0-C ,  3-H ) :   0.9759

FINAL SINGLE POINT ENERGY       -39.822172368631

DIPOLE MOMENT
-------------
                                X             Y             Z
Electronic contribution:     -0.05900       0.14534       0.00523
Nuclear contribution   :      0.06683      -0.16474       0.00297
                        -----------------------------------------
Total Dipole Moment    :      0.00784      -0.01940       0.00819
                        -----------------------------------------
Magnitude (a.u.)       :      0.02247
Magnitude (Debye)      :      0.05712

Rotational constants in cm-1:    10.625512     7.863079     4.520012
Rotational constants in MHz : 318544.842602 235729.188868 135506.543247

                             ****ORCA TERMINATED NORMALLY****
TOTAL RUN TIME: 0 days 0 hours 0 minutes 23 seconds 254 msec
