                         Program Version 5.0.3 -  RELEASE  -
|  1> !B3LYP EPR-III Autoaux
|  2> !PAL4
|  3>
|  4> * xyz 0 2
|  5>  C     -0.9165683243    -15.9544567246    -10.6398363231
|  6>  H     -1.5727458244    -15.3496358743    -11.1935224248
|  7>  H     -1.3316663493    -16.7021577313     -9.9546157332
|  8>  H      0.1608440350    -15.8350016988    -10.6492881678
|  9> *
| 10>
| 11> %EPRNMR
| 12>         GTENSOR   TRUE
| 13>         NUCLEI    = ALL H {AISO, ADIP, AORB}
| 14>         NUCLEI    = ALL C {AISO, ADIP, AORB}
| 15> END
| 16>
| 17>
| 18>                          ****END OF INPUT****

CARTESIAN COORDINATES (ANGSTROEM)
---------------------------------
  C     -0.916568  -15.954457  -10.639836
  H     -1.572746  -15.349636  -11.193522
  H     -1.331666  -16.702158   -9.954616
  H      0.160844  -15.835002  -10.649288

 Total Charge           Charge          ....    0
 Multiplicity           Mult            ....    2
 Number of Electrons    NEL             ....    9
 Basis Dimension        Dim             ....   73

ORBITAL ENERGIES
----------------
                 SPIN UP ORBITALS
  NO   OCC          E(Eh)            E(eV)
   0   1.0000     -10.183104      -277.0964
   1   1.0000      -0.688554       -18.7365
   2   1.0000      -0.431970       -11.7545
   3   1.0000      -0.415249       -11.2995
   4   1.0000      -0.234822        -6.3898
   5   0.0000       0.001142         0.0311
   6   0.0000       0.036074         0.9816
   7   0.0000       0.037502         1.0205
   8   0.0000       0.047513         1.2929
   9   0.0000       0.090342         2.4583

                 SPIN DOWN ORBITALS
  NO   OCC          E(Eh)            E(eV)
   0   1.0000     -10.168694      -276.7042
   1   1.0000      -0.649145       -17.6641
   2   1.0000      -0.422404       -11.4942
   3   1.0000      -0.405815       -11.0428
   4   0.0000      -0.077419        -2.1067
   5   0.0000       0.004235         0.1152
   6   0.0000       0.035686         0.9711
   7   0.0000       0.037104         1.0097
   8   0.0000       0.060758         1.6533

MULLIKEN ATOMIC CHARGES AND SPIN POPULATIONS
--------------------------------------------
   0 C :   -0.426506    1.102036
   1 H :    0.146559   -0.032057
   2 H :    0.137516   -0.035506
   3 H :    0.142431   -0.034473
Sum of atomic charges         :    0.0000000

LOEWDIN ATOMIC CHARGES AND SPIN POPULATIONS
-------------------------------------------
   0 C :   -0.146000    0.905716
   1 H :    0.035803    0.035801
   2 H :    0.057455    0.028366
   3 H :    0.052742    0.030117

  Mayer bond orders larger than 0.100000
B(  0-C ,  1-H ) :   0.9777 B(  0-C ,  2-H ) :   0.9785 B(  0-C ,  3-H ) :   0.9778

FINAL SINGLE POINT ENERGY       -39.827932186287

DIPOLE MOMENT
-------------
                                X             Y             Z
Electronic contribution:     -0.00698       0.03052      -0.07484
Nuclear contribution   :      0.00460      -0.01756       0.09150
                        -----------------------------------------
Total Dipole Moment    :     -0.00238       0.01296       0.01666
                        -----------------------------------------
Magnitude (a.u.)       :      0.02124
Magnitude (Debye)      :      0.05399

Rotational constants in cm-1:     9.796487     9.436142     4.810543
Rotational constants in MHz : 293691.283351 282888.412896 144216.447145

                             ****ORCA TERMINATED NORMALLY****
TOTAL RUN TIME: 0 days 0 hours 0 minutes 21 seconds 113 msec
