                         Program Version 5.0.3 -  RELEASE  -
|  1> !B3LYP EPR-III Autoaux
|  2> !PAL4
|  3>
|  4> * xyz 0 2
|  5>  C     11.6569088539     -1.6724857629     -7.4127150708
|  6>  H     10.5371294754     -1.9351493659     -7.5131991644
|  7>  H     12.0880304639     -2.0157294026     -6.5079393794
|  8>  H     12.2398186439     -1.0655204344     -8.0910388786
|  9> *
| 10>
| 11> %EPRNMR
| 12>         GTENSOR   TRUE
| 13>         NUCLEI    = ALL H {AISO, ADIP, AORB}
| 14>         NUCLEI    = ALL C {AISO, ADIP, AORB}
| 15> END
| 16>
| 17>
| 18>                          ****END OF INPUT****

CARTESIAN COORDINATES (ANGSTROEM)
---------------------------------
  C     11.656909   -1.672486   -7.412715
  H     10.537129   -1.935149   -7.513199
  H     12.088030   -2.015729   -6.507939
  H     12.239819   -1.065520   -8.091039

 Total Charge           Charge          ....    0
 Multiplicity           Mult            ....    2
 Number of Electrons    NEL             ....    9
 Basis Dimension        Dim             ....   73

ORBITAL ENERGIES
----------------
                 SPIN UP ORBITALS
  NO   OCC          E(Eh)            E(eV)
   0   1.0000     -10.189444      -277.2689
   1   1.0000      -0.683848       -18.6084
   2   1.0000      -0.430137       -11.7046
   3   1.0000      -0.407043       -11.0762
   4   1.0000      -0.235064        -6.3964
   5   0.0000       0.000136         0.0037
   6   0.0000       0.035381         0.9628
   7   0.0000       0.037923         1.0319
   8   0.0000       0.047387         1.2895
   9   0.0000       0.080382         2.1873

                 SPIN DOWN ORBITALS
  NO   OCC          E(Eh)            E(eV)
   0   1.0000     -10.174895      -276.8730
   1   1.0000      -0.644273       -17.5316
   2   1.0000      -0.420845       -11.4518
   3   1.0000      -0.397677       -10.8213
   4   0.0000      -0.077291        -2.1032
   5   0.0000       0.003482         0.0948
   6   0.0000       0.035075         0.9544
   7   0.0000       0.037574         1.0224
   8   0.0000       0.060683         1.6513

MULLIKEN ATOMIC CHARGES AND SPIN POPULATIONS
--------------------------------------------
   0 C :   -0.428083    1.106709
   1 H :    0.138738   -0.039561
   2 H :    0.140778   -0.033536
   3 H :    0.148568   -0.033613
Sum of atomic charges         :    0.0000000

LOEWDIN ATOMIC CHARGES AND SPIN POPULATIONS
-------------------------------------------
   0 C :   -0.163753    0.915064
   1 H :    0.079830    0.019246
   2 H :    0.035293    0.034837
   3 H :    0.048630    0.030852

  Mayer bond orders larger than 0.100000
B(  0-C ,  1-H ) :   0.9748 B(  0-C ,  2-H ) :   0.9757 B(  0-C ,  3-H ) :   0.9744

FINAL SINGLE POINT ENERGY       -39.824081350407

DIPOLE MOMENT
-------------
                                X             Y             Z
Electronic contribution:      0.08395       0.01469      -0.06691
Nuclear contribution   :     -0.07926       0.00079       0.09441
                        -----------------------------------------
Total Dipole Moment    :      0.00470       0.01548       0.02750
                        -----------------------------------------
Magnitude (a.u.)       :      0.03191
Magnitude (Debye)      :      0.08110

Rotational constants in cm-1:    10.305254     8.357504     4.620248
Rotational constants in MHz : 308943.757675 250551.678790 138511.559849

                             ****ORCA TERMINATED NORMALLY****
TOTAL RUN TIME: 0 days 0 hours 0 minutes 25 seconds 572 msec
