                         Program Version 5.0.3 -  RELEASE  -
|  1> !B3LYP EPR-III Autoaux
|  2> !PAL4
|  3>
|  4> * xyz 0 2
|  5>  C    -19.0504244568    -36.4495238265    -15.3109310925
|  6>  H    -19.3349679747    -35.4173475431    -15.6902511029
|  7>  H    -19.6778797869    -37.3002677993    -15.1503423509
|  8>  H    -17.9999811132    -36.5797202966    -15.1245189375
|  9> *
| 10>
| 11> %EPRNMR
| 12>         GTENSOR   TRUE
| 13>         NUCLEI    = ALL H {AISO, ADIP, AORB}
| 14>         NUCLEI    = ALL C {AISO, ADIP, AORB}
| 15> END
| 16>
| 17>
| 18>                          ****END OF INPUT****

CARTESIAN COORDINATES (ANGSTROEM)
---------------------------------
  C    -19.050424  -36.449524  -15.310931
  H    -19.334968  -35.417348  -15.690251
  H    -19.677880  -37.300268  -15.150342
  H    -17.999981  -36.579720  -15.124519

 Total Charge           Charge          ....    0
 Multiplicity           Mult            ....    2
 Number of Electrons    NEL             ....    9
 Basis Dimension        Dim             ....   73

ORBITAL ENERGIES
----------------
                 SPIN UP ORBITALS
  NO   OCC          E(Eh)            E(eV)
   0   1.0000     -10.188017      -277.2300
   1   1.0000      -0.684815       -18.6348
   2   1.0000      -0.431042       -11.7293
   3   1.0000      -0.408163       -11.1067
   4   1.0000      -0.234809        -6.3895
   5   0.0000       0.000401         0.0109
   6   0.0000       0.035230         0.9587
   7   0.0000       0.038083         1.0363
   8   0.0000       0.047424         1.2905
   9   0.0000       0.081285         2.2119

                 SPIN DOWN ORBITALS
  NO   OCC          E(Eh)            E(eV)
   0   1.0000     -10.173505      -276.8352
   1   1.0000      -0.645275       -17.5588
   2   1.0000      -0.421872       -11.4797
   3   1.0000      -0.398603       -10.8465
   4   0.0000      -0.077222        -2.1013
   5   0.0000       0.003689         0.1004
   6   0.0000       0.034919         0.9502
   7   0.0000       0.037697         1.0258
   8   0.0000       0.060719         1.6523

MULLIKEN ATOMIC CHARGES AND SPIN POPULATIONS
--------------------------------------------
   0 C :   -0.428904    1.106266
   1 H :    0.143163   -0.038277
   2 H :    0.148758   -0.033324
   3 H :    0.136983   -0.034665
Sum of atomic charges         :    0.0000000

LOEWDIN ATOMIC CHARGES AND SPIN POPULATIONS
-------------------------------------------
   0 C :   -0.161044    0.913155
   1 H :    0.073934    0.021884
   2 H :    0.043487    0.032722
   3 H :    0.043622    0.032239

  Mayer bond orders larger than 0.100000
B(  0-C ,  1-H ) :   0.9748 B(  0-C ,  2-H ) :   0.9754 B(  0-C ,  3-H ) :   0.9769

FINAL SINGLE POINT ENERGY       -39.825235491496

DIPOLE MOMENT
-------------
                                X             Y             Z
Electronic contribution:     -0.08467      -0.04623       0.01915
Nuclear contribution   :      0.10376       0.03840      -0.02422
                        -----------------------------------------
Total Dipole Moment    :      0.01909      -0.00783      -0.00507
                        -----------------------------------------
Magnitude (a.u.)       :      0.02125
Magnitude (Debye)      :      0.05401

Rotational constants in cm-1:    10.417208     8.437827     4.662654
Rotational constants in MHz : 312300.028989 252959.696343 139782.853477

                             ****ORCA TERMINATED NORMALLY****
TOTAL RUN TIME: 0 days 0 hours 0 minutes 19 seconds 366 msec
