                         Program Version 5.0.3 -  RELEASE  -
|  1> !B3LYP EPR-III Autoaux
|  2> !PAL4
|  3>
|  4> * xyz 0 2
|  5>  C    -61.1783357343    -83.7227917197    -25.9723929573
|  6>  H    -62.1314835638    -84.3008545353    -25.9764388867
|  7>  H    -60.2654745964    -84.3088263986    -26.0259914575
|  8>  H    -61.3317006083    -82.6046166022    -25.8692679485
|  9> *
| 10>
| 11> %EPRNMR
| 12>         GTENSOR   TRUE
| 13>         NUCLEI    = ALL H {AISO, ADIP, AORB}
| 14>         NUCLEI    = ALL C {AISO, ADIP, AORB}
| 15> END
| 16>
| 17>
| 18>                          ****END OF INPUT****

CARTESIAN COORDINATES (ANGSTROEM)
---------------------------------
  C    -61.178336  -83.722792  -25.972393
  H    -62.131484  -84.300855  -25.976439
  H    -60.265475  -84.308826  -26.025991
  H    -61.331701  -82.604617  -25.869268

 Total Charge           Charge          ....    0
 Multiplicity           Mult            ....    2
 Number of Electrons    NEL             ....    9
 Basis Dimension        Dim             ....   73

ORBITAL ENERGIES
----------------
                 SPIN UP ORBITALS
  NO   OCC          E(Eh)            E(eV)
   0   1.0000     -10.193824      -277.3881
   1   1.0000      -0.679852       -18.4997
   2   1.0000      -0.430862       -11.7244
   3   1.0000      -0.400803       -10.9064
   4   1.0000      -0.235035        -6.3956
   5   0.0000      -0.000348        -0.0095
   6   0.0000       0.034756         0.9458
   7   0.0000       0.038335         1.0432
   8   0.0000       0.047223         1.2850
   9   0.0000       0.078928         2.1478

                 SPIN DOWN ORBITALS
  NO   OCC          E(Eh)            E(eV)
   0   1.0000     -10.179242      -276.9912
   1   1.0000      -0.640141       -17.4191
   2   1.0000      -0.421927       -11.4812
   3   1.0000      -0.391459       -10.6522
   4   0.0000      -0.077238        -2.1017
   5   0.0000       0.003132         0.0852
   6   0.0000       0.034455         0.9376
   7   0.0000       0.037959         1.0329
   8   0.0000       0.060557         1.6478

MULLIKEN ATOMIC CHARGES AND SPIN POPULATIONS
--------------------------------------------
   0 C :   -0.430362    1.109270
   1 H :    0.133304   -0.037026
   2 H :    0.150577   -0.034278
   3 H :    0.146481   -0.037966
Sum of atomic charges         :   -0.0000000

LOEWDIN ATOMIC CHARGES AND SPIN POPULATIONS
-------------------------------------------
   0 C :   -0.177941    0.921159
   1 H :    0.058508    0.026126
   2 H :    0.049027    0.030174
   3 H :    0.070406    0.022541

  Mayer bond orders larger than 0.100000
B(  0-C ,  1-H ) :   0.9751 B(  0-C ,  2-H ) :   0.9723 B(  0-C ,  3-H ) :   0.9719

FINAL SINGLE POINT ENERGY       -39.824072820319

DIPOLE MOMENT
-------------
                                X             Y             Z
Electronic contribution:      0.13324       0.02504      -0.02244
Nuclear contribution   :     -0.14514      -0.03442       0.03409
                        -----------------------------------------
Total Dipole Moment    :     -0.01190      -0.00938       0.01165
                        -----------------------------------------
Magnitude (a.u.)       :      0.01911
Magnitude (Debye)      :      0.04858

Rotational constants in cm-1:    10.016430     8.218799     4.515738
Rotational constants in MHz : 300285.025950 246393.387572 135378.429871

                             ****ORCA TERMINATED NORMALLY****
TOTAL RUN TIME: 0 days 0 hours 0 minutes 21 seconds 166 msec
