                         Program Version 5.0.3 -  RELEASE  -
|  1> !B3LYP EPR-III Autoaux
|  2> !PAL4
|  3>
|  4> * xyz 0 2
|  5>  C    -22.7305305937    -40.6096459189    -16.2719786632
|  6>  H    -21.7727998028    -40.9909697295    -16.0355907158
|  7>  H    -23.1767641138    -39.6515635001    -16.1590397794
|  8>  H    -23.4391157954    -41.3517791357    -16.5728651284
|  9> *
| 10>
| 11> %EPRNMR
| 12>         GTENSOR   TRUE
| 13>         NUCLEI    = ALL H {AISO, ADIP, AORB}
| 14>         NUCLEI    = ALL C {AISO, ADIP, AORB}
| 15> END
| 16>
| 17>
| 18>                          ****END OF INPUT****

CARTESIAN COORDINATES (ANGSTROEM)
---------------------------------
  C    -22.730531  -40.609646  -16.271979
  H    -21.772800  -40.990970  -16.035591
  H    -23.176764  -39.651564  -16.159040
  H    -23.439116  -41.351779  -16.572865

 Total Charge           Charge          ....    0
 Multiplicity           Mult            ....    2
 Number of Electrons    NEL             ....    9
 Basis Dimension        Dim             ....   73

ORBITAL ENERGIES
----------------
                 SPIN UP ORBITALS
  NO   OCC          E(Eh)            E(eV)
   0   1.0000     -10.179196      -276.9900
   1   1.0000      -0.693010       -18.8578
   2   1.0000      -0.444413       -12.0931
   3   1.0000      -0.406957       -11.0739
   4   1.0000      -0.235265        -6.4019
   5   0.0000       0.001395         0.0380
   6   0.0000       0.034692         0.9440
   7   0.0000       0.038788         1.0555
   8   0.0000       0.047553         1.2940
   9   0.0000       0.085450         2.3252

                 SPIN DOWN ORBITALS
  NO   OCC          E(Eh)            E(eV)
   0   1.0000     -10.164846      -276.5995
   1   1.0000      -0.653915       -17.7939
   2   1.0000      -0.434996       -11.8368
   3   1.0000      -0.396939       -10.8013
   4   0.0000      -0.077842        -2.1182
   5   0.0000       0.004362         0.1187
   6   0.0000       0.034325         0.9340
   7   0.0000       0.038335         1.0432
   8   0.0000       0.060735         1.6527

MULLIKEN ATOMIC CHARGES AND SPIN POPULATIONS
--------------------------------------------
   0 C :   -0.429857    1.100381
   1 H :    0.150035   -0.032570
   2 H :    0.148339   -0.033390
   3 H :    0.131484   -0.034421
Sum of atomic charges         :   -0.0000000

LOEWDIN ATOMIC CHARGES AND SPIN POPULATIONS
-------------------------------------------
   0 C :   -0.136378    0.900038
   1 H :    0.043742    0.034010
   2 H :    0.046331    0.033142
   3 H :    0.046305    0.032809

  Mayer bond orders larger than 0.100000
B(  0-C ,  1-H ) :   0.9797 B(  0-C ,  2-H ) :   0.9799 B(  0-C ,  3-H ) :   0.9815

FINAL SINGLE POINT ENERGY       -39.824757416645

DIPOLE MOMENT
-------------
                                X             Y             Z
Electronic contribution:      0.12199       0.10180      -0.00843
Nuclear contribution   :     -0.14771      -0.12395       0.03631
                        -----------------------------------------
Total Dipole Moment    :     -0.02572      -0.02215       0.02787
                        -----------------------------------------
Magnitude (a.u.)       :      0.04392
Magnitude (Debye)      :      0.11164

Rotational constants in cm-1:    11.180714     8.821745     4.943896
Rotational constants in MHz : 335189.381950 264469.255512 148214.270361

                             ****ORCA TERMINATED NORMALLY****
TOTAL RUN TIME: 0 days 0 hours 0 minutes 31 seconds 716 msec
