                         Program Version 5.0.3 -  RELEASE  -
|  1> !B3LYP EPR-III Autoaux
|  2> !PAL4
|  3>
|  4> * xyz 0 2
|  5>  C     -4.2884430118    -19.8001377385    -11.5078892572
|  6>  H     -4.9726326737    -19.7735904800    -10.5683161827
|  7>  H     -3.8846971334    -20.6441637615    -12.0531485168
|  8>  H     -3.9272336058    -18.8071175334    -11.7211819446
|  9> *
| 10>
| 11> %EPRNMR
| 12>         GTENSOR   TRUE
| 13>         NUCLEI    = ALL H {AISO, ADIP, AORB}
| 14>         NUCLEI    = ALL C {AISO, ADIP, AORB}
| 15> END
| 16>
| 17>
| 18>                          ****END OF INPUT****

CARTESIAN COORDINATES (ANGSTROEM)
---------------------------------
  C     -4.288443  -19.800138  -11.507889
  H     -4.972633  -19.773590  -10.568316
  H     -3.884697  -20.644164  -12.053149
  H     -3.927234  -18.807118  -11.721182

 Total Charge           Charge          ....    0
 Multiplicity           Mult            ....    2
 Number of Electrons    NEL             ....    9
 Basis Dimension        Dim             ....   73

ORBITAL ENERGIES
----------------
                 SPIN UP ORBITALS
  NO   OCC          E(Eh)            E(eV)
   0   1.0000     -10.192458      -277.3509
   1   1.0000      -0.681668       -18.5491
   2   1.0000      -0.433130       -11.7861
   3   1.0000      -0.399063       -10.8591
   4   1.0000      -0.235673        -6.4130
   5   0.0000      -0.000372        -0.0101
   6   0.0000       0.034575         0.9408
   7   0.0000       0.038604         1.0505
   8   0.0000       0.047308         1.2873
   9   0.0000       0.076713         2.0875

                 SPIN DOWN ORBITALS
  NO   OCC          E(Eh)            E(eV)
   0   1.0000     -10.177835      -276.9530
   1   1.0000      -0.642099       -17.4724
   2   1.0000      -0.424046       -11.5389
   3   1.0000      -0.389579       -10.6010
   4   0.0000      -0.077551        -2.1103
   5   0.0000       0.003074         0.0837
   6   0.0000       0.034315         0.9338
   7   0.0000       0.038265         1.0412
   8   0.0000       0.060601         1.6490

MULLIKEN ATOMIC CHARGES AND SPIN POPULATIONS
--------------------------------------------
   0 C :   -0.429541    1.108160
   1 H :    0.140345   -0.040249
   2 H :    0.151979   -0.033087
   3 H :    0.137217   -0.034824
Sum of atomic charges         :    0.0000000

LOEWDIN ATOMIC CHARGES AND SPIN POPULATIONS
-------------------------------------------
   0 C :   -0.173240    0.919355
   1 H :    0.082090    0.018112
   2 H :    0.048723    0.030627
   3 H :    0.042427    0.031906

  Mayer bond orders larger than 0.100000
B(  0-C ,  1-H ) :   0.9736 B(  0-C ,  2-H ) :   0.9727 B(  0-C ,  3-H ) :   0.9751

FINAL SINGLE POINT ENERGY       -39.821930358699

DIPOLE MOMENT
-------------
                                X             Y             Z
Electronic contribution:     -0.01753      -0.11288      -0.11585
Nuclear contribution   :      0.06053       0.13156       0.13567
                        -----------------------------------------
Total Dipole Moment    :      0.04301       0.01868       0.01982
                        -----------------------------------------
Magnitude (a.u.)       :      0.05091
Magnitude (Debye)      :      0.12939

Rotational constants in cm-1:    10.468086     7.998962     4.550727
Rotational constants in MHz : 313825.321251 239802.843461 136427.358358

                             ****ORCA TERMINATED NORMALLY****
TOTAL RUN TIME: 0 days 0 hours 0 minutes 20 seconds 925 msec
