                         Program Version 5.0.3 -  RELEASE  -
|  1> !B3LYP EPR-III Autoaux
|  2> !PAL4
|  3>
|  4> * xyz 0 2
|  5>  C    -86.1817693813   -114.0209391212    -31.8458487420
|  6>  H    -85.1152812763   -113.9670145735    -31.7963165753
|  7>  H    -86.7687613245   -113.1312339341    -31.7878817573
|  8>  H    -86.8875631421   -114.9071845875    -31.9411115874
|  9> *
| 10>
| 11> %EPRNMR
| 12>         GTENSOR   TRUE
| 13>         NUCLEI    = ALL H {AISO, ADIP, AORB}
| 14>         NUCLEI    = ALL C {AISO, ADIP, AORB}
| 15> END
| 16>
| 17>
| 18>                          ****END OF INPUT****

CARTESIAN COORDINATES (ANGSTROEM)
---------------------------------
  C    -86.181769  -114.020939  -31.845849
  H    -85.115281  -113.967015  -31.796317
  H    -86.768761  -113.131234  -31.787882
  H    -86.887563  -114.907185  -31.941112

 Total Charge           Charge          ....    0
 Multiplicity           Mult            ....    2
 Number of Electrons    NEL             ....    9
 Basis Dimension        Dim             ....   73

ORBITAL ENERGIES
----------------
                 SPIN UP ORBITALS
  NO   OCC          E(Eh)            E(eV)
   0   1.0000     -10.187485      -277.2156
   1   1.0000      -0.685907       -18.6645
   2   1.0000      -0.439258       -11.9528
   3   1.0000      -0.400181       -10.8895
   4   1.0000      -0.234935        -6.3929
   5   0.0000       0.000357         0.0097
   6   0.0000       0.034334         0.9343
   7   0.0000       0.038835         1.0568
   8   0.0000       0.047414         1.2902
   9   0.0000       0.079245         2.1564

                 SPIN DOWN ORBITALS
  NO   OCC          E(Eh)            E(eV)
   0   1.0000     -10.172978      -276.8208
   1   1.0000      -0.646431       -17.5903
   2   1.0000      -0.430111       -11.7039
   3   1.0000      -0.390508       -10.6263
   4   0.0000      -0.077339        -2.1045
   5   0.0000       0.003633         0.0988
   6   0.0000       0.034032         0.9261
   7   0.0000       0.038440         1.0460
   8   0.0000       0.060694         1.6516

MULLIKEN ATOMIC CHARGES AND SPIN POPULATIONS
--------------------------------------------
   0 C :   -0.431481    1.106866
   1 H :    0.153371   -0.032644
   2 H :    0.136632   -0.034784
   3 H :    0.141478   -0.039438
Sum of atomic charges         :    0.0000000

LOEWDIN ATOMIC CHARGES AND SPIN POPULATIONS
-------------------------------------------
   0 C :   -0.159906    0.912389
   1 H :    0.044872    0.032509
   2 H :    0.040194    0.033436
   3 H :    0.074840    0.021665

  Mayer bond orders larger than 0.100000
B(  0-C ,  1-H ) :   0.9751 B(  0-C ,  2-H ) :   0.9775 B(  0-C ,  3-H ) :   0.9763

FINAL SINGLE POINT ENERGY       -39.822993045696

DIPOLE MOMENT
-------------
                                X             Y             Z
Electronic contribution:      0.15407      -0.02134      -0.00347
Nuclear contribution   :     -0.16961       0.04301       0.00917
                        -----------------------------------------
Total Dipole Moment    :     -0.01553       0.02167       0.00570
                        -----------------------------------------
Magnitude (a.u.)       :      0.02726
Magnitude (Debye)      :      0.06930

Rotational constants in cm-1:    10.938049     8.188557     4.683013
Rotational constants in MHz : 327914.453981 245486.765963 140393.194579

                             ****ORCA TERMINATED NORMALLY****
TOTAL RUN TIME: 0 days 0 hours 0 minutes 24 seconds 398 msec
