                         Program Version 5.0.3 -  RELEASE  -
|  1> !B3LYP EPR-III Autoaux
|  2> !PAL4
|  3>
|  4> * xyz 0 2
|  5>  C      9.0186043601     -4.6430879085     -8.0573135767
|  6>  H      8.1139490185     -4.0815281305     -8.1899515957
|  7>  H      9.3465325063     -5.2703496743     -8.8442643104
|  8>  H      9.5101832219     -4.7220336732     -7.1209210516
|  9> *
| 10>
| 11> %EPRNMR
| 12>         GTENSOR   TRUE
| 13>         NUCLEI    = ALL H {AISO, ADIP, AORB}
| 14>         NUCLEI    = ALL C {AISO, ADIP, AORB}
| 15> END
| 16>
| 17>
| 18>                          ****END OF INPUT****

CARTESIAN COORDINATES (ANGSTROEM)
---------------------------------
  C      9.018604   -4.643088   -8.057314
  H      8.113949   -4.081528   -8.189952
  H      9.346533   -5.270350   -8.844264
  H      9.510183   -4.722034   -7.120921

 Total Charge           Charge          ....    0
 Multiplicity           Mult            ....    2
 Number of Electrons    NEL             ....    9
 Basis Dimension        Dim             ....   73

ORBITAL ENERGIES
----------------
                 SPIN UP ORBITALS
  NO   OCC          E(Eh)            E(eV)
   0   1.0000     -10.179558      -276.9998
   1   1.0000      -0.692148       -18.8343
   2   1.0000      -0.429602       -11.6901
   3   1.0000      -0.422864       -11.5067
   4   1.0000      -0.235430        -6.4064
   5   0.0000       0.001429         0.0389
   6   0.0000       0.036427         0.9912
   7   0.0000       0.037278         1.0144
   8   0.0000       0.047462         1.2915
   9   0.0000       0.092296         2.5115

                 SPIN DOWN ORBITALS
  NO   OCC          E(Eh)            E(eV)
   0   1.0000     -10.165245      -276.6104
   1   1.0000      -0.653067       -17.7709
   2   1.0000      -0.420045       -11.4300
   3   1.0000      -0.413121       -11.2416
   4   0.0000      -0.077965        -2.1215
   5   0.0000       0.004385         0.1193
   6   0.0000       0.036001         0.9796
   7   0.0000       0.036827         1.0021
   8   0.0000       0.060646         1.6502

MULLIKEN ATOMIC CHARGES AND SPIN POPULATIONS
--------------------------------------------
   0 C :   -0.426573    1.097925
   1 H :    0.142776   -0.033027
   2 H :    0.140466   -0.032568
   3 H :    0.143330   -0.032330
Sum of atomic charges         :   -0.0000000

LOEWDIN ATOMIC CHARGES AND SPIN POPULATIONS
-------------------------------------------
   0 C :   -0.135350    0.899877
   1 H :    0.049919    0.031816
   2 H :    0.041885    0.034390
   3 H :    0.043546    0.033918

  Mayer bond orders larger than 0.100000
B(  0-C ,  1-H ) :   0.9794 B(  0-C ,  2-H ) :   0.9799 B(  0-C ,  3-H ) :   0.9795

FINAL SINGLE POINT ENERGY       -39.828072712343

DIPOLE MOMENT
-------------
                                X             Y             Z
Electronic contribution:      0.03978       0.06923      -0.00203
Nuclear contribution   :     -0.06382      -0.10841       0.01259
                        -----------------------------------------
Total Dipole Moment    :     -0.02403      -0.03918       0.01056
                        -----------------------------------------
Magnitude (a.u.)       :      0.04716
Magnitude (Debye)      :      0.11987

Rotational constants in cm-1:    10.195351     9.495337     4.937284
Rotational constants in MHz : 305648.934487 284663.052762 148016.051375

                             ****ORCA TERMINATED NORMALLY****
TOTAL RUN TIME: 0 days 0 hours 0 minutes 21 seconds 838 msec
