                         Program Version 5.0.3 -  RELEASE  -
|  1> !B3LYP EPR-III Autoaux
|  2> !PAL4
|  3>
|  4> * xyz 0 2
|  5>  C    -52.7858633123    -74.2878939529    -23.8591500212
|  6>  H    -53.7360913877    -73.8621812732    -23.7731458167
|  7>  H    -52.5416435082    -75.3114458750    -23.9794836501
|  8>  H    -51.9070609939    -73.7455977429    -23.7620941014
|  9> *
| 10>
| 11> %EPRNMR
| 12>         GTENSOR   TRUE
| 13>         NUCLEI    = ALL H {AISO, ADIP, AORB}
| 14>         NUCLEI    = ALL C {AISO, ADIP, AORB}
| 15> END
| 16>
| 17>
| 18>                          ****END OF INPUT****

CARTESIAN COORDINATES (ANGSTROEM)
---------------------------------
  C    -52.785863  -74.287894  -23.859150
  H    -53.736091  -73.862181  -23.773146
  H    -52.541644  -75.311446  -23.979484
  H    -51.907061  -73.745598  -23.762094

 Total Charge           Charge          ....    0
 Multiplicity           Mult            ....    2
 Number of Electrons    NEL             ....    9
 Basis Dimension        Dim             ....   73

ORBITAL ENERGIES
----------------
                 SPIN UP ORBITALS
  NO   OCC          E(Eh)            E(eV)
   0   1.0000     -10.174011      -276.8489
   1   1.0000      -0.697453       -18.9787
   2   1.0000      -0.446930       -12.1616
   3   1.0000      -0.412137       -11.2148
   4   1.0000      -0.234848        -6.3905
   5   0.0000       0.001846         0.0502
   6   0.0000       0.034990         0.9521
   7   0.0000       0.038596         1.0502
   8   0.0000       0.047644         1.2965
   9   0.0000       0.090805         2.4709

                 SPIN DOWN ORBITALS
  NO   OCC          E(Eh)            E(eV)
   0   1.0000     -10.159760      -276.4611
   1   1.0000      -0.658458       -17.9176
   2   1.0000      -0.437304       -11.8996
   3   1.0000      -0.402039       -10.9400
   4   0.0000      -0.077769        -2.1162
   5   0.0000       0.004707         0.1281
   6   0.0000       0.034596         0.9414
   7   0.0000       0.038113         1.0371
   8   0.0000       0.060801         1.6545

MULLIKEN ATOMIC CHARGES AND SPIN POPULATIONS
--------------------------------------------
   0 C :   -0.430197    1.097801
   1 H :    0.151027   -0.030822
   2 H :    0.140332   -0.034133
   3 H :    0.138838   -0.032846
Sum of atomic charges         :    0.0000000

LOEWDIN ATOMIC CHARGES AND SPIN POPULATIONS
-------------------------------------------
   0 C :   -0.120566    0.892634
   1 H :    0.040113    0.035839
   2 H :    0.046417    0.033792
   3 H :    0.034035    0.037736

  Mayer bond orders larger than 0.100000
B(  0-C ,  1-H ) :   0.9811 B(  0-C ,  2-H ) :   0.9828 B(  0-C ,  3-H ) :   0.9827

FINAL SINGLE POINT ENERGY       -39.823614322501

DIPOLE MOMENT
-------------
                                X             Y             Z
Electronic contribution:     -0.11046       0.03973      -0.02645
Nuclear contribution   :      0.12951      -0.04163       0.04701
                        -----------------------------------------
Total Dipole Moment    :      0.01905      -0.00190       0.02057
                        -----------------------------------------
Magnitude (a.u.)       :      0.02810
Magnitude (Debye)      :      0.07142

Rotational constants in cm-1:    11.586994     9.066139     5.090419
Rotational constants in MHz : 347369.350564 271795.999960 152606.912932

                             ****ORCA TERMINATED NORMALLY****
TOTAL RUN TIME: 0 days 0 hours 0 minutes 20 seconds 723 msec
