                         Program Version 5.0.3 -  RELEASE  -
|  1> !B3LYP EPR-III Autoaux
|  2> !PAL4
|  3>
|  4> * xyz 0 2
|  5>  C     -4.7420761052    -20.3092790386    -11.6102245029
|  6>  H     -5.3929716992    -21.0622267534    -11.0542029100
|  7>  H     -3.7200462407    -20.4922746436    -11.7385182697
|  8>  H     -5.3069495582    -19.6230375650    -12.1626709636
|  9> *
| 10>
| 11> %EPRNMR
| 12>         GTENSOR   TRUE
| 13>         NUCLEI    = ALL H {AISO, ADIP, AORB}
| 14>         NUCLEI    = ALL C {AISO, ADIP, AORB}
| 15> END
| 16>
| 17>
| 18>                          ****END OF INPUT****

CARTESIAN COORDINATES (ANGSTROEM)
---------------------------------
  C     -4.742076  -20.309279  -11.610225
  H     -5.392972  -21.062227  -11.054203
  H     -3.720046  -20.492275  -11.738518
  H     -5.306950  -19.623038  -12.162671

 Total Charge           Charge          ....    0
 Multiplicity           Mult            ....    2
 Number of Electrons    NEL             ....    9
 Basis Dimension        Dim             ....   73

ORBITAL ENERGIES
----------------
                 SPIN UP ORBITALS
  NO   OCC          E(Eh)            E(eV)
   0   1.0000     -10.183674      -277.1119
   1   1.0000      -0.689748       -18.7690
   2   1.0000      -0.440407       -11.9841
   3   1.0000      -0.405110       -11.0236
   4   1.0000      -0.237060        -6.4507
   5   0.0000       0.000899         0.0245
   6   0.0000       0.035473         0.9653
   7   0.0000       0.038263         1.0412
   8   0.0000       0.047432         1.2907
   9   0.0000       0.085739         2.3331

                 SPIN DOWN ORBITALS
  NO   OCC          E(Eh)            E(eV)
   0   1.0000     -10.169196      -276.7179
   1   1.0000      -0.650666       -17.7055
   2   1.0000      -0.430609       -11.7175
   3   1.0000      -0.395652       -10.7662
   4   0.0000      -0.078645        -2.1400
   5   0.0000       0.003933         0.1070
   6   0.0000       0.035111         0.9554
   7   0.0000       0.037909         1.0316
   8   0.0000       0.060588         1.6487

MULLIKEN ATOMIC CHARGES AND SPIN POPULATIONS
--------------------------------------------
   0 C :   -0.424179    1.098843
   1 H :    0.130826   -0.037370
   2 H :    0.148937   -0.030080
   3 H :    0.144416   -0.031393
Sum of atomic charges         :   -0.0000000

LOEWDIN ATOMIC CHARGES AND SPIN POPULATIONS
-------------------------------------------
   0 C :   -0.143973    0.905366
   1 H :    0.075922    0.021699
   2 H :    0.034388    0.036462
   3 H :    0.033663    0.036474

  Mayer bond orders larger than 0.100000
B(  0-C ,  1-H ) :   0.9794 B(  0-C ,  2-H ) :   0.9776 B(  0-C ,  3-H ) :   0.9782

FINAL SINGLE POINT ENERGY       -39.823985256674

DIPOLE MOMENT
-------------
                                X             Y             Z
Electronic contribution:      0.13226       0.14854       0.02843
Nuclear contribution   :     -0.14520      -0.18715      -0.09347
                        -----------------------------------------
Total Dipole Moment    :     -0.01294      -0.03861      -0.06504
                        -----------------------------------------
Magnitude (a.u.)       :      0.07674
Magnitude (Debye)      :      0.19506

Rotational constants in cm-1:    10.045952     9.106351     4.830429
Rotational constants in MHz : 301170.078727 273001.530956 144812.625357

                             ****ORCA TERMINATED NORMALLY****
TOTAL RUN TIME: 0 days 0 hours 0 minutes 20 seconds 999 msec
