                         Program Version 5.0.3 -  RELEASE  -
|  1> !B3LYP EPR-III Autoaux
|  2> !PAL4
|  3>
|  4> * xyz 0 2
|  5>  C      4.1414534818    -10.1917206712     -9.3276276860
|  6>  H      4.5198724566     -9.5256759496    -10.1286298964
|  7>  H      3.2127396366     -9.8930782078     -9.0568729078
|  8>  H      4.6740032859    -10.8663072878     -8.6872234538
|  9> *
| 10>
| 11> %EPRNMR
| 12>         GTENSOR   TRUE
| 13>         NUCLEI    = ALL H {AISO, ADIP, AORB}
| 14>         NUCLEI    = ALL C {AISO, ADIP, AORB}
| 15> END
| 16>
| 17>
| 18>                          ****END OF INPUT****

CARTESIAN COORDINATES (ANGSTROEM)
---------------------------------
  C      4.141453  -10.191721   -9.327628
  H      4.519872   -9.525676  -10.128630
  H      3.212740   -9.893078   -9.056873
  H      4.674003  -10.866307   -8.687223

 Total Charge           Charge          ....    0
 Multiplicity           Mult            ....    2
 Number of Electrons    NEL             ....    9
 Basis Dimension        Dim             ....   73

ORBITAL ENERGIES
----------------
                 SPIN UP ORBITALS
  NO   OCC          E(Eh)            E(eV)
   0   1.0000     -10.179277      -276.9922
   1   1.0000      -0.694303       -18.8929
   2   1.0000      -0.438610       -11.9352
   3   1.0000      -0.410499       -11.1702
   4   1.0000      -0.236818        -6.4441
   5   0.0000       0.001102         0.0300
   6   0.0000       0.035127         0.9559
   7   0.0000       0.038648         1.0517
   8   0.0000       0.047515         1.2929
   9   0.0000       0.083551         2.2735

                 SPIN DOWN ORBITALS
  NO   OCC          E(Eh)            E(eV)
   0   1.0000     -10.164872      -276.6002
   1   1.0000      -0.655579       -17.8392
   2   1.0000      -0.429100       -11.6764
   3   1.0000      -0.400267       -10.8918
   4   0.0000      -0.078630        -2.1396
   5   0.0000       0.004055         0.1103
   6   0.0000       0.034789         0.9466
   7   0.0000       0.038220         1.0400
   8   0.0000       0.060642         1.6502

MULLIKEN ATOMIC CHARGES AND SPIN POPULATIONS
--------------------------------------------
   0 C :   -0.428120    1.097735
   1 H :    0.139426   -0.035637
   2 H :    0.140016   -0.030598
   3 H :    0.148679   -0.031500
Sum of atomic charges         :    0.0000000

LOEWDIN ATOMIC CHARGES AND SPIN POPULATIONS
-------------------------------------------
   0 C :   -0.134705    0.899713
   1 H :    0.067486    0.026086
   2 H :    0.016017    0.042390
   3 H :    0.051202    0.031811

  Mayer bond orders larger than 0.100000
B(  0-C ,  1-H ) :   0.9805 B(  0-C ,  2-H ) :   0.9800 B(  0-C ,  3-H ) :   0.9791

FINAL SINGLE POINT ENERGY       -39.821214603874

DIPOLE MOMENT
-------------
                                X             Y             Z
Electronic contribution:      0.00691      -0.15463      -0.02784
Nuclear contribution   :     -0.01330       0.21742       0.08256
                        -----------------------------------------
Total Dipole Moment    :     -0.00638       0.06280       0.05472
                        -----------------------------------------
Magnitude (a.u.)       :      0.08354
Magnitude (Debye)      :      0.21233

Rotational constants in cm-1:    11.662286     8.441807     4.953162
Rotational constants in MHz : 349626.544399 253079.021383 148492.075155

                             ****ORCA TERMINATED NORMALLY****
TOTAL RUN TIME: 0 days 0 hours 0 minutes 29 seconds 527 msec
