                         Program Version 5.0.3 -  RELEASE  -
|  1> !B3LYP EPR-III Autoaux
|  2> !PAL4
|  3>
|  4> * xyz 0 2
|  5>  C    -33.7330680398    -52.9892874096    -19.0614150048
|  6>  H    -34.0042845593    -54.0766003386    -19.0299622858
|  7>  H    -32.6546507391    -52.8964907706    -19.2343657525
|  8>  H    -34.4617857447    -52.1971869057    -18.8838468923
|  9> *
| 10>
| 11> %EPRNMR
| 12>         GTENSOR   TRUE
| 13>         NUCLEI    = ALL H {AISO, ADIP, AORB}
| 14>         NUCLEI    = ALL C {AISO, ADIP, AORB}
| 15> END
| 16>
| 17>
| 18>                          ****END OF INPUT****

CARTESIAN COORDINATES (ANGSTROEM)
---------------------------------
  C    -33.733068  -52.989287  -19.061415
  H    -34.004285  -54.076600  -19.029962
  H    -32.654651  -52.896491  -19.234366
  H    -34.461786  -52.197187  -18.883847

 Total Charge           Charge          ....    0
 Multiplicity           Mult            ....    2
 Number of Electrons    NEL             ....    9
 Basis Dimension        Dim             ....   73

ORBITAL ENERGIES
----------------
                 SPIN UP ORBITALS
  NO   OCC          E(Eh)            E(eV)
   0   1.0000     -10.191107      -277.3141
   1   1.0000      -0.682027       -18.5589
   2   1.0000      -0.435594       -11.8531
   3   1.0000      -0.399535       -10.8719
   4   1.0000      -0.235016        -6.3951
   5   0.0000       0.000122         0.0033
   6   0.0000       0.034646         0.9428
   7   0.0000       0.038573         1.0496
   8   0.0000       0.047360         1.2887
   9   0.0000       0.083675         2.2769

                 SPIN DOWN ORBITALS
  NO   OCC          E(Eh)            E(eV)
   0   1.0000     -10.176537      -276.9176
   1   1.0000      -0.642371       -17.4798
   2   1.0000      -0.426515       -11.6061
   3   1.0000      -0.390102       -10.6152
   4   0.0000      -0.077251        -2.1021
   5   0.0000       0.003486         0.0948
   6   0.0000       0.034347         0.9346
   7   0.0000       0.038199         1.0395
   8   0.0000       0.060672         1.6510

MULLIKEN ATOMIC CHARGES AND SPIN POPULATIONS
--------------------------------------------
   0 C :   -0.429734    1.108206
   1 H :    0.134397   -0.037928
   2 H :    0.142850   -0.036366
   3 H :    0.152488   -0.033912
Sum of atomic charges         :    0.0000000

LOEWDIN ATOMIC CHARGES AND SPIN POPULATIONS
-------------------------------------------
   0 C :   -0.170551    0.917597
   1 H :    0.063472    0.024787
   2 H :    0.053784    0.028518
   3 H :    0.053295    0.029097

  Mayer bond orders larger than 0.100000
B(  0-C ,  1-H ) :   0.9762 B(  0-C ,  2-H ) :   0.9749 B(  0-C ,  3-H ) :   0.9726

FINAL SINGLE POINT ENERGY       -39.824826601352

DIPOLE MOMENT
-------------
                                X             Y             Z
Electronic contribution:     -0.04988       0.14155      -0.01304
Nuclear contribution   :      0.05882      -0.15171       0.02703
                        -----------------------------------------
Total Dipole Moment    :      0.00894      -0.01016       0.01399
                        -----------------------------------------
Magnitude (a.u.)       :      0.01946
Magnitude (Debye)      :      0.04948

Rotational constants in cm-1:    10.270516     8.289238     4.589163
Rotational constants in MHz : 307902.315078 248505.114558 137579.639052

                             ****ORCA TERMINATED NORMALLY****
TOTAL RUN TIME: 0 days 0 hours 0 minutes 18 seconds 835 msec
