                         Program Version 5.0.3 -  RELEASE  -
|  1> !B3LYP EPR-III Autoaux
|  2> !PAL4
|  3>
|  4> * xyz 0 2
|  5>  C    -72.0321565347    -96.6642843828    -28.4658781149
|  6>  H    -71.0648042994    -96.1370768471    -28.4056441185
|  7>  H    -72.8547256877    -96.0238356935    -28.4246941854
|  8>  H    -72.0791291699    -97.7765889909    -28.5531419051
|  9> *
| 10>
| 11> %EPRNMR
| 12>         GTENSOR   TRUE
| 13>         NUCLEI    = ALL H {AISO, ADIP, AORB}
| 14>         NUCLEI    = ALL C {AISO, ADIP, AORB}
| 15> END
| 16>
| 17>
| 18>                          ****END OF INPUT****

CARTESIAN COORDINATES (ANGSTROEM)
---------------------------------
  C    -72.032157  -96.664284  -28.465878
  H    -71.064804  -96.137077  -28.405644
  H    -72.854726  -96.023836  -28.424694
  H    -72.079129  -97.776589  -28.553142

 Total Charge           Charge          ....    0
 Multiplicity           Mult            ....    2
 Number of Electrons    NEL             ....    9
 Basis Dimension        Dim             ....   73

ORBITAL ENERGIES
----------------
                 SPIN UP ORBITALS
  NO   OCC          E(Eh)            E(eV)
   0   1.0000     -10.186335      -277.1843
   1   1.0000      -0.686295       -18.6750
   2   1.0000      -0.430491       -11.7142
   3   1.0000      -0.411304       -11.1921
   4   1.0000      -0.234741        -6.3876
   5   0.0000       0.000653         0.0178
   6   0.0000       0.035618         0.9692
   7   0.0000       0.037782         1.0281
   8   0.0000       0.047454         1.2913
   9   0.0000       0.085661         2.3310

                 SPIN DOWN ORBITALS
  NO   OCC          E(Eh)            E(eV)
   0   1.0000     -10.171859      -276.7903
   1   1.0000      -0.646811       -17.6006
   2   1.0000      -0.421129       -11.4595
   3   1.0000      -0.401827       -10.9343
   4   0.0000      -0.077234        -2.1016
   5   0.0000       0.003878         0.1055
   6   0.0000       0.035294         0.9604
   7   0.0000       0.037383         1.0172
   8   0.0000       0.060736         1.6527

MULLIKEN ATOMIC CHARGES AND SPIN POPULATIONS
--------------------------------------------
   0 C :   -0.428282    1.105019
   1 H :    0.136359   -0.036358
   2 H :    0.145867   -0.032418
   3 H :    0.146055   -0.036243
Sum of atomic charges         :    0.0000000

LOEWDIN ATOMIC CHARGES AND SPIN POPULATIONS
-------------------------------------------
   0 C :   -0.155512    0.910585
   1 H :    0.058863    0.027368
   2 H :    0.029618    0.037287
   3 H :    0.067031    0.024760

  Mayer bond orders larger than 0.100000
B(  0-C ,  1-H ) :   0.9776 B(  0-C ,  2-H ) :   0.9767 B(  0-C ,  3-H ) :   0.9749

FINAL SINGLE POINT ENERGY       -39.825624554620

DIPOLE MOMENT
-------------
                                X             Y             Z
Electronic contribution:     -0.07501      -0.03082      -0.00744
Nuclear contribution   :      0.07331       0.04148       0.01061
                        -----------------------------------------
Total Dipole Moment    :     -0.00171       0.01067       0.00317
                        -----------------------------------------
Magnitude (a.u.)       :      0.01126
Magnitude (Debye)      :      0.02862

Rotational constants in cm-1:    10.386562     8.612136     4.708290
Rotational constants in MHz : 311381.295283 258185.339500 141150.972022

                             ****ORCA TERMINATED NORMALLY****
TOTAL RUN TIME: 0 days 0 hours 0 minutes 34 seconds 953 msec
