                         Program Version 5.0.3 -  RELEASE  -
|  1> !B3LYP EPR-III Autoaux
|  2> !PAL4
|  3>
|  4> * xyz 0 2
|  5>  C    -15.1704542388    -32.1113400706    -14.3077183638
|  6>  H    -16.1786811315    -32.2816446373    -14.0273238887
|  7>  H    -14.8345530520    -32.8476135268    -15.0023454063
|  8>  H    -14.4796771546    -31.3257428368    -14.0081528290
|  9> *
| 10>
| 11> %EPRNMR
| 12>         GTENSOR   TRUE
| 13>         NUCLEI    = ALL H {AISO, ADIP, AORB}
| 14>         NUCLEI    = ALL C {AISO, ADIP, AORB}
| 15> END
| 16>
| 17>
| 18>                          ****END OF INPUT****

CARTESIAN COORDINATES (ANGSTROEM)
---------------------------------
  C    -15.170454  -32.111340  -14.307718
  H    -16.178681  -32.281645  -14.027324
  H    -14.834553  -32.847614  -15.002345
  H    -14.479677  -31.325743  -14.008153

 Total Charge           Charge          ....    0
 Multiplicity           Mult            ....    2
 Number of Electrons    NEL             ....    9
 Basis Dimension        Dim             ....   73

ORBITAL ENERGIES
----------------
                 SPIN UP ORBITALS
  NO   OCC          E(Eh)            E(eV)
   0   1.0000     -10.181560      -277.0543
   1   1.0000      -0.690544       -18.7906
   2   1.0000      -0.438217       -11.9245
   3   1.0000      -0.409924       -11.1546
   4   1.0000      -0.234696        -6.3864
   5   0.0000       0.001182         0.0322
   6   0.0000       0.035024         0.9531
   7   0.0000       0.038410         1.0452
   8   0.0000       0.047534         1.2935
   9   0.0000       0.085466         2.3257

                 SPIN DOWN ORBITALS
  NO   OCC          E(Eh)            E(eV)
   0   1.0000     -10.167178      -276.6630
   1   1.0000      -0.651284       -17.7224
   2   1.0000      -0.428934       -11.6719
   3   1.0000      -0.400003       -10.8846
   4   0.0000      -0.077413        -2.1065
   5   0.0000       0.004245         0.1155
   6   0.0000       0.034672         0.9435
   7   0.0000       0.037966         1.0331
   8   0.0000       0.060767         1.6536

MULLIKEN ATOMIC CHARGES AND SPIN POPULATIONS
--------------------------------------------
   0 C :   -0.429927    1.102549
   1 H :    0.145905   -0.033787
   2 H :    0.135030   -0.034408
   3 H :    0.148992   -0.034355
Sum of atomic charges         :    0.0000000

LOEWDIN ATOMIC CHARGES AND SPIN POPULATIONS
-------------------------------------------
   0 C :   -0.143515    0.903764
   1 H :    0.042610    0.033898
   2 H :    0.043607    0.033324
   3 H :    0.057297    0.029013

  Mayer bond orders larger than 0.100000
B(  0-C ,  1-H ) :   0.9791 B(  0-C ,  2-H ) :   0.9801 B(  0-C ,  3-H ) :   0.9774

FINAL SINGLE POINT ENERGY       -39.825820655677

DIPOLE MOMENT
-------------
                                X             Y             Z
Electronic contribution:     -0.01362       0.07769       0.07146
Nuclear contribution   :      0.01383      -0.09067      -0.08594
                        -----------------------------------------
Total Dipole Moment    :      0.00021      -0.01298      -0.01448
                        -----------------------------------------
Magnitude (a.u.)       :      0.01945
Magnitude (Debye)      :      0.04944

Rotational constants in cm-1:    11.037571     8.671331     4.856321
Rotational constants in MHz : 330898.065779 259959.953947 145588.835117

                             ****ORCA TERMINATED NORMALLY****
TOTAL RUN TIME: 0 days 0 hours 0 minutes 17 seconds 922 msec
