                         Program Version 5.0.3 -  RELEASE  -
|  1> !B3LYP EPR-III Autoaux
|  2> !PAL4
|  3>
|  4> * xyz 0 2
|  5>  C     -3.4849714323    -18.8876539628    -11.2736768441
|  6>  H     -3.6281480096    -17.9542626137    -10.6900585733
|  7>  H     -4.2255401325    -18.9927882865    -12.0735742490
|  8>  H     -2.6231714293    -19.6085785865    -11.2779015132
|  9> *
| 10>
| 11> %EPRNMR
| 12>         GTENSOR   TRUE
| 13>         NUCLEI    = ALL H {AISO, ADIP, AORB}
| 14>         NUCLEI    = ALL C {AISO, ADIP, AORB}
| 15> END
| 16>
| 17>
| 18>                          ****END OF INPUT****

CARTESIAN COORDINATES (ANGSTROEM)
---------------------------------
  C     -3.484971  -18.887654  -11.273677
  H     -3.628148  -17.954263  -10.690059
  H     -4.225540  -18.992788  -12.073574
  H     -2.623171  -19.608579  -11.277902

 Total Charge           Charge          ....    0
 Multiplicity           Mult            ....    2
 Number of Electrons    NEL             ....    9
 Basis Dimension        Dim             ....   73

ORBITAL ENERGIES
----------------
                 SPIN UP ORBITALS
  NO   OCC          E(Eh)            E(eV)
   0   1.0000     -10.193105      -277.3685
   1   1.0000      -0.680413       -18.5150
   2   1.0000      -0.427571       -11.6348
   3   1.0000      -0.403712       -10.9856
   4   1.0000      -0.235787        -6.4161
   5   0.0000      -0.000275        -0.0075
   6   0.0000       0.035024         0.9531
   7   0.0000       0.038327         1.0429
   8   0.0000       0.047310         1.2874
   9   0.0000       0.079070         2.1516

                 SPIN DOWN ORBITALS
  NO   OCC          E(Eh)            E(eV)
   0   1.0000     -10.178476      -276.9704
   1   1.0000      -0.640871       -17.4390
   2   1.0000      -0.418675       -11.3927
   3   1.0000      -0.394072       -10.7232
   4   0.0000      -0.077603        -2.1117
   5   0.0000       0.003149         0.0857
   6   0.0000       0.034758         0.9458
   7   0.0000       0.037965         1.0331
   8   0.0000       0.060606         1.6492

MULLIKEN ATOMIC CHARGES AND SPIN POPULATIONS
--------------------------------------------
   0 C :   -0.428237    1.107405
   1 H :    0.145364   -0.035906
   2 H :    0.134702   -0.035478
   3 H :    0.148171   -0.036021
Sum of atomic charges         :    0.0000000

LOEWDIN ATOMIC CHARGES AND SPIN POPULATIONS
-------------------------------------------
   0 C :   -0.176941    0.920302
   1 H :    0.060055    0.026372
   2 H :    0.050060    0.029188
   3 H :    0.066826    0.024139

  Mayer bond orders larger than 0.100000
B(  0-C ,  1-H ) :   0.9732 B(  0-C ,  2-H ) :   0.9752 B(  0-C ,  3-H ) :   0.9718

FINAL SINGLE POINT ENERGY       -39.824386218777

DIPOLE MOMENT
-------------
                                X             Y             Z
Electronic contribution:      0.02948      -0.05209       0.11934
Nuclear contribution   :     -0.01645       0.08044      -0.16526
                        -----------------------------------------
Total Dipole Moment    :      0.01303       0.02835      -0.04592
                        -----------------------------------------
Magnitude (a.u.)       :      0.05552
Magnitude (Debye)      :      0.14112

Rotational constants in cm-1:    10.242716     8.091668     4.543865
Rotational constants in MHz : 307068.893112 242582.095202 136221.633294

                             ****ORCA TERMINATED NORMALLY****
TOTAL RUN TIME: 0 days 0 hours 0 minutes 26 seconds 324 msec
