                         Program Version 5.0.3 -  RELEASE  -
|  1> !B3LYP EPR-III Autoaux
|  2> !PAL4
|  3>
|  4> * xyz 0 2
|  5>  C    -92.0992164348   -121.4099849484    -33.0659153154
|  6>  H    -91.8956151202   -122.4179667461    -33.1402279676
|  7>  H    -91.3182435722   -120.7114669273    -32.9716793579
|  8>  H    -93.0366270531   -120.9030270788    -33.0787289007
|  9> *
| 10>
| 11> %EPRNMR
| 12>         GTENSOR   TRUE
| 13>         NUCLEI    = ALL H {AISO, ADIP, AORB}
| 14>         NUCLEI    = ALL C {AISO, ADIP, AORB}
| 15> END
| 16>
| 17>
| 18>                          ****END OF INPUT****

CARTESIAN COORDINATES (ANGSTROEM)
---------------------------------
  C    -92.099216  -121.409985  -33.065915
  H    -91.895615  -122.417967  -33.140228
  H    -91.318244  -120.711467  -32.971679
  H    -93.036627  -120.903027  -33.078729

 Total Charge           Charge          ....    0
 Multiplicity           Mult            ....    2
 Number of Electrons    NEL             ....    9
 Basis Dimension        Dim             ....   73

ORBITAL ENERGIES
----------------
                 SPIN UP ORBITALS
  NO   OCC          E(Eh)            E(eV)
   0   1.0000     -10.174847      -276.8717
   1   1.0000      -0.696589       -18.9551
   2   1.0000      -0.447660       -12.1814
   3   1.0000      -0.410683       -11.1752
   4   1.0000      -0.234756        -6.3880
   5   0.0000       0.001799         0.0489
   6   0.0000       0.034894         0.9495
   7   0.0000       0.038634         1.0513
   8   0.0000       0.047631         1.2961
   9   0.0000       0.089395         2.4326

                 SPIN DOWN ORBITALS
  NO   OCC          E(Eh)            E(eV)
   0   1.0000     -10.160585      -276.4836
   1   1.0000      -0.657503       -17.8916
   2   1.0000      -0.438035       -11.9195
   3   1.0000      -0.400690       -10.9033
   4   0.0000      -0.077703        -2.1144
   5   0.0000       0.004681         0.1274
   6   0.0000       0.034499         0.9388
   7   0.0000       0.038158         1.0383
   8   0.0000       0.060796         1.6543

MULLIKEN ATOMIC CHARGES AND SPIN POPULATIONS
--------------------------------------------
   0 C :   -0.430159    1.098404
   1 H :    0.151792   -0.030293
   2 H :    0.135838   -0.033650
   3 H :    0.142528   -0.034461
Sum of atomic charges         :   -0.0000000

LOEWDIN ATOMIC CHARGES AND SPIN POPULATIONS
-------------------------------------------
   0 C :   -0.122602    0.893758
   1 H :    0.031982    0.038321
   2 H :    0.040999    0.035332
   3 H :    0.049621    0.032588

  Mayer bond orders larger than 0.100000
B(  0-C ,  1-H ) :   0.9813 B(  0-C ,  2-H ) :   0.9826 B(  0-C ,  3-H ) :   0.9821

FINAL SINGLE POINT ENERGY       -39.823937026867

DIPOLE MOMENT
-------------
                                X             Y             Z
Electronic contribution:     -0.02580      -0.13116      -0.00677
Nuclear contribution   :      0.03535       0.14802       0.00533
                        -----------------------------------------
Total Dipole Moment    :      0.00954       0.01686      -0.00144
                        -----------------------------------------
Magnitude (a.u.)       :      0.01942
Magnitude (Debye)      :      0.04937

Rotational constants in cm-1:    11.325116     9.157733     5.063481
Rotational constants in MHz : 339518.437521 274541.937845 151799.332654

                             ****ORCA TERMINATED NORMALLY****
TOTAL RUN TIME: 0 days 0 hours 0 minutes 34 seconds 346 msec
