                         Program Version 5.0.3 -  RELEASE  -
|  1> !B3LYP EPR-III Autoaux
|  2> !PAL4
|  3>
|  4> * xyz 0 2
|  5>  C    -36.2624365379    -55.8352739481    -19.6994182241
|  6>  H    -35.2043291416    -55.3566111953    -19.6851746900
|  7>  H    -37.1843917706    -55.3613680868    -19.4979018047
|  8>  H    -36.4148982601    -56.9184220419    -19.9104928950
|  9> *
| 10>
| 11> %EPRNMR
| 12>         GTENSOR   TRUE
| 13>         NUCLEI    = ALL H {AISO, ADIP, AORB}
| 14>         NUCLEI    = ALL C {AISO, ADIP, AORB}
| 15> END
| 16>
| 17>
| 18>                          ****END OF INPUT****

CARTESIAN COORDINATES (ANGSTROEM)
---------------------------------
  C    -36.262437  -55.835274  -19.699418
  H    -35.204329  -55.356611  -19.685175
  H    -37.184392  -55.361368  -19.497902
  H    -36.414898  -56.918422  -19.910493

 Total Charge           Charge          ....    0
 Multiplicity           Mult            ....    2
 Number of Electrons    NEL             ....    9
 Basis Dimension        Dim             ....   73

ORBITAL ENERGIES
----------------
                 SPIN UP ORBITALS
  NO   OCC          E(Eh)            E(eV)
   0   1.0000     -10.192926      -277.3636
   1   1.0000      -0.681189       -18.5361
   2   1.0000      -0.426062       -11.5937
   3   1.0000      -0.405149       -11.0247
   4   1.0000      -0.234900        -6.3920
   5   0.0000      -0.000474        -0.0129
   6   0.0000       0.035052         0.9538
   7   0.0000       0.038023         1.0347
   8   0.0000       0.047327         1.2878
   9   0.0000       0.078121         2.1258

                 SPIN DOWN ORBITALS
  NO   OCC          E(Eh)            E(eV)
   0   1.0000     -10.178303      -276.9657
   1   1.0000      -0.641536       -17.4571
   2   1.0000      -0.417004       -11.3472
   3   1.0000      -0.395712       -10.7679
   4   0.0000      -0.077037        -2.0963
   5   0.0000       0.003049         0.0830
   6   0.0000       0.034853         0.9484
   7   0.0000       0.037650         1.0245
   8   0.0000       0.060669         1.6509

MULLIKEN ATOMIC CHARGES AND SPIN POPULATIONS
--------------------------------------------
   0 C :   -0.430013    1.110098
   1 H :    0.148129   -0.039262
   2 H :    0.146250   -0.033530
   3 H :    0.135634   -0.037306
Sum of atomic charges         :   -0.0000000

LOEWDIN ATOMIC CHARGES AND SPIN POPULATIONS
-------------------------------------------
   0 C :   -0.174970    0.920557
   1 H :    0.082908    0.017953
   2 H :    0.032424    0.035468
   3 H :    0.059638    0.026021

  Mayer bond orders larger than 0.100000
B(  0-C ,  1-H ) :   0.9702 B(  0-C ,  2-H ) :   0.9738 B(  0-C ,  3-H ) :   0.9752

FINAL SINGLE POINT ENERGY       -39.821581255491

DIPOLE MOMENT
-------------
                                X             Y             Z
Electronic contribution:     -0.00052       0.09073       0.00493
Nuclear contribution   :     -0.01222      -0.09787       0.00351
                        -----------------------------------------
Total Dipole Moment    :     -0.01274      -0.00714       0.00844
                        -----------------------------------------
Magnitude (a.u.)       :      0.01687
Magnitude (Debye)      :      0.04288

Rotational constants in cm-1:    10.474614     7.935036     4.515442
Rotational constants in MHz : 314021.041110 237886.382208 135369.541335

                             ****ORCA TERMINATED NORMALLY****
TOTAL RUN TIME: 0 days 0 hours 0 minutes 31 seconds 609 msec
