                         Program Version 5.0.3 -  RELEASE  -
|  1> !B3LYP EPR-III Autoaux
|  2> !PAL4
|  3>
|  4> * xyz 0 2
|  5>  C    -36.0594404940    -55.6272804635    -19.6426127007
|  6>  H    -35.0434850552    -55.2698425495    -19.6356417380
|  7>  H    -36.7922890985    -54.8352114078    -19.4719982299
|  8>  H    -36.3593863563    -56.6198720258    -19.8983392014
|  9> *
| 10>
| 11> %EPRNMR
| 12>         GTENSOR   TRUE
| 13>         NUCLEI    = ALL H {AISO, ADIP, AORB}
| 14>         NUCLEI    = ALL C {AISO, ADIP, AORB}
| 15> END
| 16>
| 17>
| 18>                          ****END OF INPUT****

CARTESIAN COORDINATES (ANGSTROEM)
---------------------------------
  C    -36.059440  -55.627280  -19.642613
  H    -35.043485  -55.269843  -19.635642
  H    -36.792289  -54.835211  -19.471998
  H    -36.359386  -56.619872  -19.898339

 Total Charge           Charge          ....    0
 Multiplicity           Mult            ....    2
 Number of Electrons    NEL             ....    9
 Basis Dimension        Dim             ....   73

ORBITAL ENERGIES
----------------
                 SPIN UP ORBITALS
  NO   OCC          E(Eh)            E(eV)
   0   1.0000     -10.183957      -277.1196
   1   1.0000      -0.687964       -18.7204
   2   1.0000      -0.434674       -11.8281
   3   1.0000      -0.410993       -11.1837
   4   1.0000      -0.235056        -6.3962
   5   0.0000       0.001044         0.0284
   6   0.0000       0.035563         0.9677
   7   0.0000       0.037987         1.0337
   8   0.0000       0.047493         1.2923
   9   0.0000       0.089186         2.4269

                 SPIN DOWN ORBITALS
  NO   OCC          E(Eh)            E(eV)
   0   1.0000     -10.169527      -276.7269
   1   1.0000      -0.648589       -17.6490
   2   1.0000      -0.425264       -11.5720
   3   1.0000      -0.401411       -10.9229
   4   0.0000      -0.077523        -2.1095
   5   0.0000       0.004148         0.1129
   6   0.0000       0.035198         0.9578
   7   0.0000       0.037578         1.0225
   8   0.0000       0.060734         1.6527

MULLIKEN ATOMIC CHARGES AND SPIN POPULATIONS
--------------------------------------------
   0 C :   -0.427079    1.102392
   1 H :    0.141704   -0.034353
   2 H :    0.137063   -0.035447
   3 H :    0.148312   -0.032593
Sum of atomic charges         :   -0.0000000

LOEWDIN ATOMIC CHARGES AND SPIN POPULATIONS
-------------------------------------------
   0 C :   -0.149126    0.906934
   1 H :    0.048609    0.031383
   2 H :    0.055301    0.028989
   3 H :    0.045216    0.032694

  Mayer bond orders larger than 0.100000
B(  0-C ,  1-H ) :   0.9780 B(  0-C ,  2-H ) :   0.9785 B(  0-C ,  3-H ) :   0.9768

FINAL SINGLE POINT ENERGY       -39.827648085508

DIPOLE MOMENT
-------------
                                X             Y             Z
Electronic contribution:      0.01229      -0.10264       0.02949
Nuclear contribution   :     -0.01262       0.11761      -0.05857
                        -----------------------------------------
Total Dipole Moment    :     -0.00033       0.01496      -0.02908
                        -----------------------------------------
Magnitude (a.u.)       :      0.03270
Magnitude (Debye)      :      0.08312

Rotational constants in cm-1:    10.201382     9.010699     4.793686
Rotational constants in MHz : 305829.745338 270133.962791 143711.099295

                             ****ORCA TERMINATED NORMALLY****
TOTAL RUN TIME: 0 days 0 hours 0 minutes 31 seconds 462 msec
