                         Program Version 5.0.3 -  RELEASE  -
|  1> !B3LYP EPR-III Autoaux
|  2> !PAL4
|  3>
|  4> * xyz 0 2
|  5>  C    -28.5538900648    -47.1862179339    -17.7482978082
|  6>  H    -27.7081004527    -47.8636278545    -17.6398784500
|  7>  H    -28.5633266066    -46.1389699721    -17.7776294637
|  8>  H    -29.5267039124    -47.5923399391    -17.9763407051
|  9> *
| 10>
| 11> %EPRNMR
| 12>         GTENSOR   TRUE
| 13>         NUCLEI    = ALL H {AISO, ADIP, AORB}
| 14>         NUCLEI    = ALL C {AISO, ADIP, AORB}
| 15> END
| 16>
| 17>
| 18>                          ****END OF INPUT****

CARTESIAN COORDINATES (ANGSTROEM)
---------------------------------
  C    -28.553890  -47.186218  -17.748298
  H    -27.708100  -47.863628  -17.639878
  H    -28.563327  -46.138970  -17.777629
  H    -29.526704  -47.592340  -17.976341

 Total Charge           Charge          ....    0
 Multiplicity           Mult            ....    2
 Number of Electrons    NEL             ....    9
 Basis Dimension        Dim             ....   73

ORBITAL ENERGIES
----------------
                 SPIN UP ORBITALS
  NO   OCC          E(Eh)            E(eV)
   0   1.0000     -10.181663      -277.0571
   1   1.0000      -0.690591       -18.7919
   2   1.0000      -0.438247       -11.9253
   3   1.0000      -0.409789       -11.1509
   4   1.0000      -0.235134        -6.3983
   5   0.0000       0.001181         0.0321
   6   0.0000       0.035165         0.9569
   7   0.0000       0.038350         1.0436
   8   0.0000       0.047522         1.2931
   9   0.0000       0.086773         2.3612

                 SPIN DOWN ORBITALS
  NO   OCC          E(Eh)            E(eV)
   0   1.0000     -10.167270      -276.6655
   1   1.0000      -0.651383       -17.7250
   2   1.0000      -0.428850       -11.6696
   3   1.0000      -0.399952       -10.8832
   4   0.0000      -0.077654        -2.1131
   5   0.0000       0.004227         0.1150
   6   0.0000       0.034813         0.9473
   7   0.0000       0.037914         1.0317
   8   0.0000       0.060738         1.6528

MULLIKEN ATOMIC CHARGES AND SPIN POPULATIONS
--------------------------------------------
   0 C :   -0.428712    1.101553
   1 H :    0.148379   -0.034012
   2 H :    0.146044   -0.032695
   3 H :    0.134289   -0.034847
Sum of atomic charges         :    0.0000000

LOEWDIN ATOMIC CHARGES AND SPIN POPULATIONS
-------------------------------------------
   0 C :   -0.142985    0.903656
   1 H :    0.057562    0.028948
   2 H :    0.035720    0.036108
   3 H :    0.049704    0.031288

  Mayer bond orders larger than 0.100000
B(  0-C ,  1-H ) :   0.9774 B(  0-C ,  2-H ) :   0.9791 B(  0-C ,  3-H ) :   0.9802

FINAL SINGLE POINT ENERGY       -39.825777356803

DIPOLE MOMENT
-------------
                                X             Y             Z
Electronic contribution:      0.09379       0.02887       0.07489
Nuclear contribution   :     -0.10227      -0.02719      -0.11164
                        -----------------------------------------
Total Dipole Moment    :     -0.00849       0.00167      -0.03675
                        -----------------------------------------
Magnitude (a.u.)       :      0.03776
Magnitude (Debye)      :      0.09597

Rotational constants in cm-1:    10.880814     8.751238     4.861183
Rotational constants in MHz : 326198.598234 262355.510589 145734.610464

                             ****ORCA TERMINATED NORMALLY****
TOTAL RUN TIME: 0 days 0 hours 0 minutes 23 seconds 110 msec
