                         Program Version 5.0.3 -  RELEASE  -
|  1> !B3LYP EPR-III Autoaux
|  2> !PAL4
|  3>
|  4> * xyz 0 2
|  5>  C    -74.5992193251    -99.7861615925    -29.0734222679
|  6>  H    -75.5457302149    -99.2305683621    -29.0314173157
|  7>  H    -74.4937767933   -100.8631446305    -29.1641458814
|  8>  H    -73.6851905905    -99.1855053860    -28.9834735212
|  9> *
| 10>
| 11> %EPRNMR
| 12>         GTENSOR   TRUE
| 13>         NUCLEI    = ALL H {AISO, ADIP, AORB}
| 14>         NUCLEI    = ALL C {AISO, ADIP, AORB}
| 15> END
| 16>
| 17>
| 18>                          ****END OF INPUT****

CARTESIAN COORDINATES (ANGSTROEM)
---------------------------------
  C    -74.599219  -99.786162  -29.073422
  H    -75.545730  -99.230568  -29.031417
  H    -74.493777  -100.863145  -29.164146
  H    -73.685191  -99.185505  -28.983474

 Total Charge           Charge          ....    0
 Multiplicity           Mult            ....    2
 Number of Electrons    NEL             ....    9
 Basis Dimension        Dim             ....   73

ORBITAL ENERGIES
----------------
                 SPIN UP ORBITALS
  NO   OCC          E(Eh)            E(eV)
   0   1.0000     -10.188332      -277.2386
   1   1.0000      -0.683830       -18.6080
   2   1.0000      -0.428718       -11.6660
   3   1.0000      -0.410852       -11.1798
   4   1.0000      -0.234741        -6.3876
   5   0.0000       0.000552         0.0150
   6   0.0000       0.035699         0.9714
   7   0.0000       0.037727         1.0266
   8   0.0000       0.047431         1.2907
   9   0.0000       0.086034         2.3411

                 SPIN DOWN ORBITALS
  NO   OCC          E(Eh)            E(eV)
   0   1.0000     -10.173825      -276.8438
   1   1.0000      -0.644225       -17.5302
   2   1.0000      -0.419522       -11.4158
   3   1.0000      -0.401411       -10.9230
   4   0.0000      -0.077173        -2.1000
   5   0.0000       0.003817         0.1039
   6   0.0000       0.035357         0.9621
   7   0.0000       0.037346         1.0162
   8   0.0000       0.060732         1.6526

MULLIKEN ATOMIC CHARGES AND SPIN POPULATIONS
--------------------------------------------
   0 C :   -0.427297    1.105765
   1 H :    0.144061   -0.035506
   2 H :    0.146304   -0.034424
   3 H :    0.136932   -0.035835
Sum of atomic charges         :   -0.0000000

LOEWDIN ATOMIC CHARGES AND SPIN POPULATIONS
-------------------------------------------
   0 C :   -0.162284    0.913563
   1 H :    0.056668    0.027995
   2 H :    0.051065    0.029987
   3 H :    0.054551    0.028455

  Mayer bond orders larger than 0.100000
B(  0-C ,  1-H ) :   0.9752 B(  0-C ,  2-H ) :   0.9750 B(  0-C ,  3-H ) :   0.9766

FINAL SINGLE POINT ENERGY       -39.827681502284

DIPOLE MOMENT
-------------
                                X             Y             Z
Electronic contribution:     -0.04832      -0.05545      -0.02141
Nuclear contribution   :      0.05468       0.05941       0.03090
                        -----------------------------------------
Total Dipole Moment    :      0.00636       0.00395       0.00949
                        -----------------------------------------
Magnitude (a.u.)       :      0.01209
Magnitude (Debye)      :      0.03074

Rotational constants in cm-1:     9.875801     8.821261     4.660091
Rotational constants in MHz : 296069.077122 264454.738243 139706.002271

                             ****ORCA TERMINATED NORMALLY****
TOTAL RUN TIME: 0 days 0 hours 0 minutes 26 seconds 888 msec
