                         Program Version 5.0.3 -  RELEASE  -
|  1> !B3LYP EPR-III Autoaux
|  2> !PAL4
|  3>
|  4> * xyz 0 2
|  5>  C    -61.9978676152    -84.6436490700    -26.1586434242
|  6>  H    -62.2696422385    -85.7115892177    -26.2085498577
|  7>  H    -60.8242872280    -84.5476113976    -26.1083708406
|  8>  H    -62.7478914944    -83.8632478396    -26.0990607692
|  9> *
| 10>
| 11> %EPRNMR
| 12>         GTENSOR   TRUE
| 13>         NUCLEI    = ALL H {AISO, ADIP, AORB}
| 14>         NUCLEI    = ALL C {AISO, ADIP, AORB}
| 15> END
| 16>
| 17>
| 18>                          ****END OF INPUT****

CARTESIAN COORDINATES (ANGSTROEM)
---------------------------------
  C    -61.997868  -84.643649  -26.158643
  H    -62.269642  -85.711589  -26.208550
  H    -60.824287  -84.547611  -26.108371
  H    -62.747891  -83.863248  -26.099061

 Total Charge           Charge          ....    0
 Multiplicity           Mult            ....    2
 Number of Electrons    NEL             ....    9
 Basis Dimension        Dim             ....   73

ORBITAL ENERGIES
----------------
                 SPIN UP ORBITALS
  NO   OCC          E(Eh)            E(eV)
   0   1.0000     -10.196585      -277.4632
   1   1.0000      -0.677808       -18.4441
   2   1.0000      -0.432921       -11.7804
   3   1.0000      -0.394216       -10.7272
   4   1.0000      -0.235291        -6.4026
   5   0.0000      -0.000957        -0.0260
   6   0.0000       0.034346         0.9346
   7   0.0000       0.038595         1.0502
   8   0.0000       0.047239         1.2854
   9   0.0000       0.075604         2.0573

                 SPIN DOWN ORBITALS
  NO   OCC          E(Eh)            E(eV)
   0   1.0000     -10.181884      -277.0631
   1   1.0000      -0.637905       -17.3583
   2   1.0000      -0.423933       -11.5358
   3   1.0000      -0.385062       -10.4781
   4   0.0000      -0.077156        -2.0995
   5   0.0000       0.002688         0.0731
   6   0.0000       0.034107         0.9281
   7   0.0000       0.038304         1.0423
   8   0.0000       0.060596         1.6489

MULLIKEN ATOMIC CHARGES AND SPIN POPULATIONS
--------------------------------------------
   0 C :   -0.430264    1.112074
   1 H :    0.137971   -0.036736
   2 H :    0.138531   -0.041967
   3 H :    0.153762   -0.033372
Sum of atomic charges         :    0.0000000

LOEWDIN ATOMIC CHARGES AND SPIN POPULATIONS
-------------------------------------------
   0 C :   -0.184408    0.925694
   1 H :    0.052230    0.027896
   2 H :    0.085251    0.015800
   3 H :    0.046927    0.030610

  Mayer bond orders larger than 0.100000
B(  0-C ,  1-H ) :   0.9730 B(  0-C ,  2-H ) :   0.9719 B(  0-C ,  3-H ) :   0.9703

FINAL SINGLE POINT ENERGY       -39.820425919487

DIPOLE MOMENT
-------------
                                X             Y             Z
Electronic contribution:     -0.12153       0.12337      -0.02732
Nuclear contribution   :      0.11376      -0.14353       0.04493
                        -----------------------------------------
Total Dipole Moment    :     -0.00778      -0.02016       0.01761
                        -----------------------------------------
Magnitude (a.u.)       :      0.02787
Magnitude (Debye)      :      0.07085

Rotational constants in cm-1:    10.007780     7.937502     4.429587
Rotational constants in MHz : 300025.704397 237960.314404 132795.684439

                             ****ORCA TERMINATED NORMALLY****
TOTAL RUN TIME: 0 days 0 hours 0 minutes 23 seconds 233 msec
