                         Program Version 5.0.3 -  RELEASE  -
|  1> !B3LYP EPR-III Autoaux
|  2> !PAL4
|  3>
|  4> * xyz 0 2
|  5>  C     11.8089623098     -1.4977146448     -7.3621181458
|  6>  H     10.7918205564     -1.0104505890     -7.3077908499
|  7>  H     12.0318702917     -2.1944617158     -6.6004925001
|  8>  H     12.3907688363     -1.4555694319     -8.2752106378
|  9> *
| 10>
| 11> %EPRNMR
| 12>         GTENSOR   TRUE
| 13>         NUCLEI    = ALL H {AISO, ADIP, AORB}
| 14>         NUCLEI    = ALL C {AISO, ADIP, AORB}
| 15> END
| 16>
| 17>
| 18>                          ****END OF INPUT****

CARTESIAN COORDINATES (ANGSTROEM)
---------------------------------
  C     11.808962   -1.497715   -7.362118
  H     10.791821   -1.010451   -7.307791
  H     12.031870   -2.194462   -6.600493
  H     12.390769   -1.455569   -8.275211

 Total Charge           Charge          ....    0
 Multiplicity           Mult            ....    2
 Number of Electrons    NEL             ....    9
 Basis Dimension        Dim             ....   73

ORBITAL ENERGIES
----------------
                 SPIN UP ORBITALS
  NO   OCC          E(Eh)            E(eV)
   0   1.0000     -10.187228      -277.2086
   1   1.0000      -0.685836       -18.6626
   2   1.0000      -0.428094       -11.6490
   3   1.0000      -0.412149       -11.2152
   4   1.0000      -0.236806        -6.4438
   5   0.0000       0.000590         0.0160
   6   0.0000       0.036298         0.9877
   7   0.0000       0.037481         1.0199
   8   0.0000       0.047394         1.2897
   9   0.0000       0.086708         2.3594

                 SPIN DOWN ORBITALS
  NO   OCC          E(Eh)            E(eV)
   0   1.0000     -10.172695      -276.8131
   1   1.0000      -0.646639       -17.5960
   2   1.0000      -0.418446       -11.3865
   3   1.0000      -0.402782       -10.9603
   4   0.0000      -0.078367        -2.1325
   5   0.0000       0.003731         0.1015
   6   0.0000       0.035946         0.9781
   7   0.0000       0.037141         1.0107
   8   0.0000       0.060590         1.6487

MULLIKEN ATOMIC CHARGES AND SPIN POPULATIONS
--------------------------------------------
   0 C :   -0.423374    1.100596
   1 H :    0.136085   -0.036210
   2 H :    0.143272   -0.031647
   3 H :    0.144016   -0.032740
Sum of atomic charges         :    0.0000000

LOEWDIN ATOMIC CHARGES AND SPIN POPULATIONS
-------------------------------------------
   0 C :   -0.156491    0.910831
   1 H :    0.070031    0.023454
   2 H :    0.035924    0.035171
   3 H :    0.050536    0.030544

  Mayer bond orders larger than 0.100000
B(  0-C ,  1-H ) :   0.9768 B(  0-C ,  2-H ) :   0.9765 B(  0-C ,  3-H ) :   0.9760

FINAL SINGLE POINT ENERGY       -39.826505264828

DIPOLE MOMENT
-------------
                                X             Y             Z
Electronic contribution:      0.12702       0.06281       0.04537
Nuclear contribution   :     -0.15921      -0.12542      -0.07280
                        -----------------------------------------
Total Dipole Moment    :     -0.03219      -0.06261      -0.02743
                        -----------------------------------------
Magnitude (a.u.)       :      0.07555
Magnitude (Debye)      :      0.19204

Rotational constants in cm-1:     9.777484     8.953795     4.725506
Rotational constants in MHz : 293121.582702 268428.017682 141667.115537

                             ****ORCA TERMINATED NORMALLY****
TOTAL RUN TIME: 0 days 0 hours 0 minutes 25 seconds 574 msec
