                         Program Version 5.0.3 -  RELEASE  -
|  1> !B3LYP EPR-III Autoaux
|  2> !PAL4
|  3>
|  4> * xyz 0 2
|  5>  C     -8.1887204738    -24.2303695989    -12.4948763736
|  6>  H     -8.7210506597    -25.0277761457    -13.0632838867
|  7>  H     -7.2564202862    -23.9391603088    -13.0419417626
|  8>  H     -8.5101002294    -23.5821053860    -11.6295983427
|  9> *
| 10>
| 11> %EPRNMR
| 12>         GTENSOR   TRUE
| 13>         NUCLEI    = ALL H {AISO, ADIP, AORB}
| 14>         NUCLEI    = ALL C {AISO, ADIP, AORB}
| 15> END
| 16>
| 17>
| 18>                          ****END OF INPUT****

CARTESIAN COORDINATES (ANGSTROEM)
---------------------------------
  C     -8.188720  -24.230370  -12.494876
  H     -8.721051  -25.027776  -13.063284
  H     -7.256420  -23.939160  -13.041942
  H     -8.510100  -23.582105  -11.629598

 Total Charge           Charge          ....    0
 Multiplicity           Mult            ....    2
 Number of Electrons    NEL             ....    9
 Basis Dimension        Dim             ....   73

ORBITAL ENERGIES
----------------
                 SPIN UP ORBITALS
  NO   OCC          E(Eh)            E(eV)
   0   1.0000     -10.196486      -277.4605
   1   1.0000      -0.677714       -18.4415
   2   1.0000      -0.429705       -11.6929
   3   1.0000      -0.396555       -10.7908
   4   1.0000      -0.236071        -6.4238
   5   0.0000      -0.000815        -0.0222
   6   0.0000       0.034485         0.9384
   7   0.0000       0.038709         1.0533
   8   0.0000       0.047229         1.2852
   9   0.0000       0.076410         2.0792

                 SPIN DOWN ORBITALS
  NO   OCC          E(Eh)            E(eV)
   0   1.0000     -10.181783      -277.0604
   1   1.0000      -0.638074       -17.3629
   2   1.0000      -0.420881       -11.4527
   3   1.0000      -0.387023       -10.5314
   4   0.0000      -0.077643        -2.1128
   5   0.0000       0.002743         0.0746
   6   0.0000       0.034253         0.9321
   7   0.0000       0.038368         1.0441
   8   0.0000       0.060538         1.6473

MULLIKEN ATOMIC CHARGES AND SPIN POPULATIONS
--------------------------------------------
   0 C :   -0.429713    1.109627
   1 H :    0.146571   -0.036526
   2 H :    0.131637   -0.037128
   3 H :    0.151504   -0.035973
Sum of atomic charges         :   -0.0000000

LOEWDIN ATOMIC CHARGES AND SPIN POPULATIONS
-------------------------------------------
   0 C :   -0.187016    0.925196
   1 H :    0.060522    0.025770
   2 H :    0.058761    0.025483
   3 H :    0.067733    0.023551

  Mayer bond orders larger than 0.100000
B(  0-C ,  1-H ) :   0.9717 B(  0-C ,  2-H ) :   0.9745 B(  0-C ,  3-H ) :   0.9696

FINAL SINGLE POINT ENERGY       -39.822015885384

DIPOLE MOMENT
-------------
                                X             Y             Z
Electronic contribution:     -0.07005      -0.06896       0.14439
Nuclear contribution   :      0.05890       0.10648      -0.18752
                        -----------------------------------------
Total Dipole Moment    :     -0.01115       0.03752      -0.04312
                        -----------------------------------------
Magnitude (a.u.)       :      0.05824
Magnitude (Debye)      :      0.14803

Rotational constants in cm-1:    10.192927     7.844327     4.458480
Rotational constants in MHz : 305576.249179 235167.014225 133661.873353

                             ****ORCA TERMINATED NORMALLY****
TOTAL RUN TIME: 0 days 0 hours 0 minutes 25 seconds 736 msec
