                         Program Version 5.0.3 -  RELEASE  -
|  1> !B3LYP EPR-III Autoaux
|  2> !PAL4
|  3>
|  4> * xyz 0 2
|  5>  C    -44.2022695130    -64.6997749117    -21.7146679536
|  6>  H    -43.9520148340    -63.5811942051    -21.6983700797
|  7>  H    -45.1113568727    -65.2285232686    -21.6255065605
|  8>  H    -43.3397003778    -65.4557943561    -21.7318605613
|  9> *
| 10>
| 11> %EPRNMR
| 12>         GTENSOR   TRUE
| 13>         NUCLEI    = ALL H {AISO, ADIP, AORB}
| 14>         NUCLEI    = ALL C {AISO, ADIP, AORB}
| 15> END
| 16>
| 17>
| 18>                          ****END OF INPUT****

CARTESIAN COORDINATES (ANGSTROEM)
---------------------------------
  C    -44.202270  -64.699775  -21.714668
  H    -43.952015  -63.581194  -21.698370
  H    -45.111357  -65.228523  -21.625507
  H    -43.339700  -65.455794  -21.731861

 Total Charge           Charge          ....    0
 Multiplicity           Mult            ....    2
 Number of Electrons    NEL             ....    9
 Basis Dimension        Dim             ....   73

ORBITAL ENERGIES
----------------
                 SPIN UP ORBITALS
  NO   OCC          E(Eh)            E(eV)
   0   1.0000     -10.194968      -277.4192
   1   1.0000      -0.679984       -18.5033
   2   1.0000      -0.434336       -11.8189
   3   1.0000      -0.394124       -10.7247
   4   1.0000      -0.235440        -6.4066
   5   0.0000      -0.000726        -0.0198
   6   0.0000       0.034192         0.9304
   7   0.0000       0.038729         1.0539
   8   0.0000       0.047258         1.2860
   9   0.0000       0.077155         2.0995

                 SPIN DOWN ORBITALS
  NO   OCC          E(Eh)            E(eV)
   0   1.0000     -10.180296      -277.0199
   1   1.0000      -0.640287       -17.4231
   2   1.0000      -0.425264       -11.5720
   3   1.0000      -0.384798       -10.4709
   4   0.0000      -0.077320        -2.1040
   5   0.0000       0.002837         0.0772
   6   0.0000       0.033985         0.9248
   7   0.0000       0.038390         1.0447
   8   0.0000       0.060588         1.6487

MULLIKEN ATOMIC CHARGES AND SPIN POPULATIONS
--------------------------------------------
   0 C :   -0.431429    1.111237
   1 H :    0.152644   -0.038081
   2 H :    0.150613   -0.033632
   3 H :    0.128171   -0.039524
Sum of atomic charges         :   -0.0000000

LOEWDIN ATOMIC CHARGES AND SPIN POPULATIONS
-------------------------------------------
   0 C :   -0.180181    0.923158
   1 H :    0.077027    0.020260
   2 H :    0.031924    0.035486
   3 H :    0.071229    0.021095

  Mayer bond orders larger than 0.100000
B(  0-C ,  1-H ) :   0.9693 B(  0-C ,  2-H ) :   0.9728 B(  0-C ,  3-H ) :   0.9759

FINAL SINGLE POINT ENERGY       -39.819264373076

DIPOLE MOMENT
-------------
                                X             Y             Z
Electronic contribution:     -0.15089       0.11345      -0.03857
Nuclear contribution   :      0.15270      -0.12455       0.06615
                        -----------------------------------------
Total Dipole Moment    :      0.00181      -0.01111       0.02758
                        -----------------------------------------
Magnitude (a.u.)       :      0.02979
Magnitude (Debye)      :      0.07572

Rotational constants in cm-1:    10.368578     7.857064     4.476200
Rotational constants in MHz : 310842.158744 235548.850545 134193.114576

                             ****ORCA TERMINATED NORMALLY****
TOTAL RUN TIME: 0 days 0 hours 0 minutes 21 seconds 341 msec
