                         Program Version 5.0.3 -  RELEASE  -
|  1> !B3LYP EPR-III Autoaux
|  2> !PAL4
|  3>
|  4> * xyz 0 2
|  5>  C      6.3948418383     -7.6082345725     -8.7530446037
|  6>  H      7.2654939673     -8.1805386136     -8.2049608384
|  7>  H      5.9090181752     -6.9730240625     -8.0594994874
|  8>  H      5.8900594740     -7.8289604991     -9.7079187949
|  9> *
| 10>
| 11> %EPRNMR
| 12>         GTENSOR   TRUE
| 13>         NUCLEI    = ALL H {AISO, ADIP, AORB}
| 14>         NUCLEI    = ALL C {AISO, ADIP, AORB}
| 15> END
| 16>
| 17>
| 18>                          ****END OF INPUT****

CARTESIAN COORDINATES (ANGSTROEM)
---------------------------------
  C      6.394842   -7.608235   -8.753045
  H      7.265494   -8.180539   -8.204961
  H      5.909018   -6.973024   -8.059499
  H      5.890059   -7.828960   -9.707919

 Total Charge           Charge          ....    0
 Multiplicity           Mult            ....    2
 Number of Electrons    NEL             ....    9
 Basis Dimension        Dim             ....   73

ORBITAL ENERGIES
----------------
                 SPIN UP ORBITALS
  NO   OCC          E(Eh)            E(eV)
   0   1.0000     -10.193931      -277.3910
   1   1.0000      -0.681462       -18.5435
   2   1.0000      -0.429739       -11.6938
   3   1.0000      -0.398807       -10.8521
   4   1.0000      -0.237296        -6.4572
   5   0.0000      -0.000871        -0.0237
   6   0.0000       0.034682         0.9438
   7   0.0000       0.038673         1.0523
   8   0.0000       0.047219         1.2849
   9   0.0000       0.074191         2.0188

                 SPIN DOWN ORBITALS
  NO   OCC          E(Eh)            E(eV)
   0   1.0000     -10.179239      -276.9912
   1   1.0000      -0.642197       -17.4751
   2   1.0000      -0.420603       -11.4452
   3   1.0000      -0.389138       -10.5890
   4   0.0000      -0.078419        -2.1339
   5   0.0000       0.002603         0.0708
   6   0.0000       0.034466         0.9379
   7   0.0000       0.038364         1.0439
   8   0.0000       0.060429         1.6444

MULLIKEN ATOMIC CHARGES AND SPIN POPULATIONS
--------------------------------------------
   0 C :   -0.427463    1.105592
   1 H :    0.138703   -0.039738
   2 H :    0.138399   -0.032853
   3 H :    0.150361   -0.033002
Sum of atomic charges         :    0.0000000

LOEWDIN ATOMIC CHARGES AND SPIN POPULATIONS
-------------------------------------------
   0 C :   -0.176327    0.920662
   1 H :    0.087045    0.016366
   2 H :    0.031655    0.035204
   3 H :    0.057627    0.027769

  Mayer bond orders larger than 0.100000
B(  0-C ,  1-H ) :   0.9733 B(  0-C ,  2-H ) :   0.9743 B(  0-C ,  3-H ) :   0.9719

FINAL SINGLE POINT ENERGY       -39.819276158093

DIPOLE MOMENT
-------------
                                X             Y             Z
Electronic contribution:      0.02597       0.08519      -0.16746
Nuclear contribution   :     -0.08990      -0.11828       0.21492
                        -----------------------------------------
Total Dipole Moment    :     -0.06394      -0.03309       0.04746
                        -----------------------------------------
Magnitude (a.u.)       :      0.08623
Magnitude (Debye)      :      0.21917

Rotational constants in cm-1:    10.672136     7.710096     4.530796
Rotational constants in MHz : 319942.586717 231142.877863 135829.838700

                             ****ORCA TERMINATED NORMALLY****
TOTAL RUN TIME: 0 days 0 hours 0 minutes 33 seconds 990 msec
