                         Program Version 5.0.3 -  RELEASE  -
|  1> !B3LYP EPR-III Autoaux
|  2> !PAL4
|  3>
|  4> * xyz 0 2
|  5>  C    -41.8653230652    -62.1000154623    -21.1247380865
|  6>  H    -40.9966801977    -62.7241532674    -21.0829337515
|  7>  H    -41.5499146304    -61.0546077464    -20.9831845409
|  8>  H    -42.8576699152    -62.5096475532    -21.2229615278
|  9> *
| 10>
| 11> %EPRNMR
| 12>         GTENSOR   TRUE
| 13>         NUCLEI    = ALL H {AISO, ADIP, AORB}
| 14>         NUCLEI    = ALL C {AISO, ADIP, AORB}
| 15> END
| 16>
| 17>
| 18>                          ****END OF INPUT****

CARTESIAN COORDINATES (ANGSTROEM)
---------------------------------
  C    -41.865323  -62.100015  -21.124738
  H    -40.996680  -62.724153  -21.082934
  H    -41.549915  -61.054608  -20.983185
  H    -42.857670  -62.509648  -21.222962

 Total Charge           Charge          ....    0
 Multiplicity           Mult            ....    2
 Number of Electrons    NEL             ....    9
 Basis Dimension        Dim             ....   73

ORBITAL ENERGIES
----------------
                 SPIN UP ORBITALS
  NO   OCC          E(Eh)            E(eV)
   0   1.0000     -10.185187      -277.1530
   1   1.0000      -0.687497       -18.7077
   2   1.0000      -0.439057       -11.9473
   3   1.0000      -0.403906       -10.9908
   4   1.0000      -0.234932        -6.3928
   5   0.0000       0.000780         0.0212
   6   0.0000       0.034675         0.9436
   7   0.0000       0.038669         1.0522
   8   0.0000       0.047464         1.2916
   9   0.0000       0.083786         2.2799

                 SPIN DOWN ORBITALS
  NO   OCC          E(Eh)            E(eV)
   0   1.0000     -10.170732      -276.7597
   1   1.0000      -0.648126       -17.6364
   2   1.0000      -0.429850       -11.6968
   3   1.0000      -0.394139       -10.7251
   4   0.0000      -0.077435        -2.1071
   5   0.0000       0.003946         0.1074
   6   0.0000       0.034348         0.9346
   7   0.0000       0.038246         1.0407
   8   0.0000       0.060720         1.6523

MULLIKEN ATOMIC CHARGES AND SPIN POPULATIONS
--------------------------------------------
   0 C :   -0.430116    1.104707
   1 H :    0.136802   -0.034838
   2 H :    0.141237   -0.036829
   3 H :    0.152077   -0.033039
Sum of atomic charges         :    0.0000000

LOEWDIN ATOMIC CHARGES AND SPIN POPULATIONS
-------------------------------------------
   0 C :   -0.153982    0.908982
   1 H :    0.043476    0.032766
   2 H :    0.059951    0.027384
   3 H :    0.050555    0.030867

  Mayer bond orders larger than 0.100000
B(  0-C ,  1-H ) :   0.9785 B(  0-C ,  2-H ) :   0.9779 B(  0-C ,  3-H ) :   0.9757

FINAL SINGLE POINT ENERGY       -39.825244993042

DIPOLE MOMENT
-------------
                                X             Y             Z
Electronic contribution:     -0.12661      -0.01721      -0.04385
Nuclear contribution   :      0.14368       0.00872       0.06381
                        -----------------------------------------
Total Dipole Moment    :      0.01707      -0.00848       0.01995
                        -----------------------------------------
Magnitude (a.u.)       :      0.02760
Magnitude (Debye)      :      0.07014

Rotational constants in cm-1:    10.927147     8.411626     4.756127
Rotational constants in MHz : 327587.640678 252174.215231 142585.095279

                             ****ORCA TERMINATED NORMALLY****
TOTAL RUN TIME: 0 days 0 hours 0 minutes 21 seconds 214 msec
