                         Program Version 5.0.3 -  RELEASE  -
|  1> !B3LYP EPR-III Autoaux
|  2> !PAL4
|  3>
|  4> * xyz 0 2
|  5>  C    -76.8334223170   -102.5270617731    -29.6116670029
|  6>  H    -76.9979394898   -103.6132146899    -29.6990287711
|  7>  H    -75.9065352966   -102.0226106568    -29.5131707386
|  8>  H    -77.6829627776   -101.7889419966    -29.5658757119
|  9> *
| 10>
| 11> %EPRNMR
| 12>         GTENSOR   TRUE
| 13>         NUCLEI    = ALL H {AISO, ADIP, AORB}
| 14>         NUCLEI    = ALL C {AISO, ADIP, AORB}
| 15> END
| 16>
| 17>
| 18>                          ****END OF INPUT****

CARTESIAN COORDINATES (ANGSTROEM)
---------------------------------
  C    -76.833422  -102.527062  -29.611667
  H    -76.997939  -103.613215  -29.699029
  H    -75.906535  -102.022611  -29.513171
  H    -77.682963  -101.788942  -29.565876

 Total Charge           Charge          ....    0
 Multiplicity           Mult            ....    2
 Number of Electrons    NEL             ....    9
 Basis Dimension        Dim             ....   73

ORBITAL ENERGIES
----------------
                 SPIN UP ORBITALS
  NO   OCC          E(Eh)            E(eV)
   0   1.0000     -10.188993      -277.2566
   1   1.0000      -0.684101       -18.6153
   2   1.0000      -0.434775       -11.8308
   3   1.0000      -0.403220       -10.9722
   4   1.0000      -0.234936        -6.3929
   5   0.0000       0.000333         0.0091
   6   0.0000       0.034963         0.9514
   7   0.0000       0.038320         1.0427
   8   0.0000       0.047398         1.2898
   9   0.0000       0.085469         2.3257

                 SPIN DOWN ORBITALS
  NO   OCC          E(Eh)            E(eV)
   0   1.0000     -10.174463      -276.8612
   1   1.0000      -0.644534       -17.5387
   2   1.0000      -0.425553       -11.5799
   3   1.0000      -0.393771       -10.7151
   4   0.0000      -0.077271        -2.1027
   5   0.0000       0.003635         0.0989
   6   0.0000       0.034655         0.9430
   7   0.0000       0.037939         1.0324
   8   0.0000       0.060694         1.6516

MULLIKEN ATOMIC CHARGES AND SPIN POPULATIONS
--------------------------------------------
   0 C :   -0.429181    1.106874
   1 H :    0.150421   -0.034848
   2 H :    0.144950   -0.033886
   3 H :    0.133809   -0.038139
Sum of atomic charges         :   -0.0000000

LOEWDIN ATOMIC CHARGES AND SPIN POPULATIONS
-------------------------------------------
   0 C :   -0.163603    0.914444
   1 H :    0.059622    0.027163
   2 H :    0.036849    0.034531
   3 H :    0.067132    0.023862

  Mayer bond orders larger than 0.100000
B(  0-C ,  1-H ) :   0.9735 B(  0-C ,  2-H ) :   0.9758 B(  0-C ,  3-H ) :   0.9770

FINAL SINGLE POINT ENERGY       -39.824763598136

DIPOLE MOMENT
-------------
                                X             Y             Z
Electronic contribution:      0.07067      -0.10817      -0.02852
Nuclear contribution   :     -0.06533       0.11723       0.04266
                        -----------------------------------------
Total Dipole Moment    :      0.00534       0.00907       0.01415
                        -----------------------------------------
Magnitude (a.u.)       :      0.01763
Magnitude (Debye)      :      0.04481

Rotational constants in cm-1:    10.394979     8.379859     4.641112
Rotational constants in MHz : 311633.640022 251221.841283 139137.026461

                             ****ORCA TERMINATED NORMALLY****
TOTAL RUN TIME: 0 days 0 hours 0 minutes 20 seconds 193 msec
