                         Program Version 5.0.3 -  RELEASE  -
|  1> !B3LYP EPR-III Autoaux
|  2> !PAL4
|  3>
|  4> * xyz 0 2
|  5>  C      8.0045549071     -5.8171413481     -8.3328030468
|  6>  H      8.5645559916     -5.3635347769     -7.4280454932
|  7>  H      7.5391066689     -5.1369409207     -9.0645798030
|  8>  H      7.6685996559     -6.8630142050     -8.2786257932
|  9> *
| 10>
| 11> %EPRNMR
| 12>         GTENSOR   TRUE
| 13>         NUCLEI    = ALL H {AISO, ADIP, AORB}
| 14>         NUCLEI    = ALL C {AISO, ADIP, AORB}
| 15> END
| 16>
| 17>
| 18>                          ****END OF INPUT****

CARTESIAN COORDINATES (ANGSTROEM)
---------------------------------
  C      8.004555   -5.817141   -8.332803
  H      8.564556   -5.363535   -7.428045
  H      7.539107   -5.136941   -9.064580
  H      7.668600   -6.863014   -8.278626

 Total Charge           Charge          ....    0
 Multiplicity           Mult            ....    2
 Number of Electrons    NEL             ....    9
 Basis Dimension        Dim             ....   73

ORBITAL ENERGIES
----------------
                 SPIN UP ORBITALS
  NO   OCC          E(Eh)            E(eV)
   0   1.0000     -10.196338      -277.4565
   1   1.0000      -0.677948       -18.4479
   2   1.0000      -0.418549       -11.3893
   3   1.0000      -0.408528       -11.1166
   4   1.0000      -0.237922        -6.4742
   5   0.0000      -0.000626        -0.0170
   6   0.0000       0.036669         0.9978
   7   0.0000       0.037044         1.0080
   8   0.0000       0.047192         1.2842
   9   0.0000       0.082888         2.2555

                 SPIN DOWN ORBITALS
  NO   OCC          E(Eh)            E(eV)
   0   1.0000     -10.181609      -277.0557
   1   1.0000      -0.638553       -17.3759
   2   1.0000      -0.409083       -11.1317
   3   1.0000      -0.399443       -10.8694
   4   0.0000      -0.078705        -2.1417
   5   0.0000       0.002801         0.0762
   6   0.0000       0.036365         0.9895
   7   0.0000       0.036808         1.0016
   8   0.0000       0.060410         1.6438

MULLIKEN ATOMIC CHARGES AND SPIN POPULATIONS
--------------------------------------------
   0 C :   -0.421446    1.103428
   1 H :    0.137195   -0.036832
   2 H :    0.142012   -0.033376
   3 H :    0.142238   -0.033220
Sum of atomic charges         :    0.0000000

LOEWDIN ATOMIC CHARGES AND SPIN POPULATIONS
-------------------------------------------
   0 C :   -0.182408    0.923402
   1 H :    0.076448    0.019862
   2 H :    0.053524    0.028181
   3 H :    0.052437    0.028555

  Mayer bond orders larger than 0.100000
B(  0-C ,  1-H ) :   0.9723 B(  0-C ,  2-H ) :   0.9722 B(  0-C ,  3-H ) :   0.9722

FINAL SINGLE POINT ENERGY       -39.824431645797

DIPOLE MOMENT
-------------
                                X             Y             Z
Electronic contribution:      0.10279      -0.05236      -0.12712
Nuclear contribution   :     -0.18093       0.06590       0.17025
                        -----------------------------------------
Total Dipole Moment    :     -0.07813       0.01354       0.04313
                        -----------------------------------------
Magnitude (a.u.)       :      0.09027
Magnitude (Debye)      :      0.22944

Rotational constants in cm-1:     9.103251     8.586716     4.490497
Rotational constants in MHz : 272908.588667 257423.267442 134621.725884

                             ****ORCA TERMINATED NORMALLY****
TOTAL RUN TIME: 0 days 0 hours 0 minutes 23 seconds 11 msec
