                         Program Version 5.0.3 -  RELEASE  -
|  1> !B3LYP EPR-III Autoaux
|  2> !PAL4
|  3>
|  4> * xyz 0 2
|  5>  C    -71.8834134951    -96.4782688991    -28.4346131707
|  6>  H    -70.8174979716    -96.1747059484    -28.3784539939
|  7>  H    -72.7492596089    -95.7901215422    -28.3739460734
|  8>  H    -72.0880551060    -97.6199850278    -28.5149694652
|  9> *
| 10>
| 11> %EPRNMR
| 12>         GTENSOR   TRUE
| 13>         NUCLEI    = ALL H {AISO, ADIP, AORB}
| 14>         NUCLEI    = ALL C {AISO, ADIP, AORB}
| 15> END
| 16>
| 17>
| 18>                          ****END OF INPUT****

CARTESIAN COORDINATES (ANGSTROEM)
---------------------------------
  C    -71.883413  -96.478269  -28.434613
  H    -70.817498  -96.174706  -28.378454
  H    -72.749260  -95.790122  -28.373946
  H    -72.088055  -97.619985  -28.514969

 Total Charge           Charge          ....    0
 Multiplicity           Mult            ....    2
 Number of Electrons    NEL             ....    9
 Basis Dimension        Dim             ....   73

ORBITAL ENERGIES
----------------
                 SPIN UP ORBITALS
  NO   OCC          E(Eh)            E(eV)
   0   1.0000     -10.197995      -277.5016
   1   1.0000      -0.675517       -18.3817
   2   1.0000      -0.424525       -11.5519
   3   1.0000      -0.401533       -10.9263
   4   1.0000      -0.235058        -6.3962
   5   0.0000      -0.000901        -0.0245
   6   0.0000       0.035548         0.9673
   7   0.0000       0.037593         1.0229
   8   0.0000       0.047243         1.2856
   9   0.0000       0.082636         2.2486

                 SPIN DOWN ORBITALS
  NO   OCC          E(Eh)            E(eV)
   0   1.0000     -10.183279      -277.1011
   1   1.0000      -0.635474       -17.2921
   2   1.0000      -0.415475       -11.3057
   3   1.0000      -0.392637       -10.6842
   4   0.0000      -0.076944        -2.0938
   5   0.0000       0.002766         0.0753
   6   0.0000       0.035260         0.9595
   7   0.0000       0.037328         1.0158
   8   0.0000       0.060629         1.6498

MULLIKEN ATOMIC CHARGES AND SPIN POPULATIONS
--------------------------------------------
   0 C :   -0.427171    1.112012
   1 H :    0.145502   -0.036168
   2 H :    0.147261   -0.035746
   3 H :    0.134408   -0.040098
Sum of atomic charges         :    0.0000000

LOEWDIN ATOMIC CHARGES AND SPIN POPULATIONS
-------------------------------------------
   0 C :   -0.188766    0.927790
   1 H :    0.056353    0.026660
   2 H :    0.055843    0.026948
   3 H :    0.076571    0.018602

  Mayer bond orders larger than 0.100000
B(  0-C ,  1-H ) :   0.9703 B(  0-C ,  2-H ) :   0.9700 B(  0-C ,  3-H ) :   0.9720

FINAL SINGLE POINT ENERGY       -39.823396108307

DIPOLE MOMENT
-------------
                                X             Y             Z
Electronic contribution:      0.00516       0.11340      -0.01395
Nuclear contribution   :     -0.00343      -0.11243       0.02733
                        -----------------------------------------
Total Dipole Moment    :      0.00173       0.00098       0.01339
                        -----------------------------------------
Magnitude (a.u.)       :      0.01353
Magnitude (Debye)      :      0.03440

Rotational constants in cm-1:     8.987446     8.583041     4.391746
Rotational constants in MHz : 269436.841145 257313.110373 131661.226518

                             ****ORCA TERMINATED NORMALLY****
TOTAL RUN TIME: 0 days 0 hours 0 minutes 34 seconds 953 msec
