                         Program Version 5.0.3 -  RELEASE  -
|  1> !B3LYP EPR-III Autoaux
|  2> !PAL4
|  3>
|  4> * xyz 0 2
|  5>  C     11.8511438406     -1.4460520380     -7.3519777925
|  6>  H     11.1015890938     -0.6468415688     -7.2066604872
|  7>  H     12.0014010929     -2.2059838775     -6.6240353134
|  8>  H     12.4238225196     -1.5031371880     -8.2743067657
|  9> *
| 10>
| 11> %EPRNMR
| 12>         GTENSOR   TRUE
| 13>         NUCLEI    = ALL H {AISO, ADIP, AORB}
| 14>         NUCLEI    = ALL C {AISO, ADIP, AORB}
| 15> END
| 16>
| 17>
| 18>                          ****END OF INPUT****

CARTESIAN COORDINATES (ANGSTROEM)
---------------------------------
  C     11.851144   -1.446052   -7.351978
  H     11.101589   -0.646842   -7.206660
  H     12.001401   -2.205984   -6.624035
  H     12.423823   -1.503137   -8.274307

 Total Charge           Charge          ....    0
 Multiplicity           Mult            ....    2
 Number of Electrons    NEL             ....    9
 Basis Dimension        Dim             ....   73

ORBITAL ENERGIES
----------------
                 SPIN UP ORBITALS
  NO   OCC          E(Eh)            E(eV)
   0   1.0000     -10.185602      -277.1643
   1   1.0000      -0.686223       -18.6731
   2   1.0000      -0.424293       -11.5456
   3   1.0000      -0.419201       -11.4071
   4   1.0000      -0.234707        -6.3867
   5   0.0000       0.000863         0.0235
   6   0.0000       0.036486         0.9928
   7   0.0000       0.037047         1.0081
   8   0.0000       0.047479         1.2920
   9   0.0000       0.088797         2.4163

                 SPIN DOWN ORBITALS
  NO   OCC          E(Eh)            E(eV)
   0   1.0000     -10.171147      -276.7710
   1   1.0000      -0.646723       -17.5982
   2   1.0000      -0.414835       -11.2882
   3   1.0000      -0.409834       -11.1521
   4   0.0000      -0.077243        -2.1019
   5   0.0000       0.004041         0.1100
   6   0.0000       0.036122         0.9829
   7   0.0000       0.036656         0.9975
   8   0.0000       0.060757         1.6533

MULLIKEN ATOMIC CHARGES AND SPIN POPULATIONS
--------------------------------------------
   0 C :   -0.426468    1.103731
   1 H :    0.142202   -0.035703
   2 H :    0.143585   -0.033208
   3 H :    0.140680   -0.034820
Sum of atomic charges         :    0.0000000

LOEWDIN ATOMIC CHARGES AND SPIN POPULATIONS
-------------------------------------------
   0 C :   -0.153773    0.909515
   1 H :    0.061213    0.026773
   2 H :    0.040368    0.033861
   3 H :    0.052193    0.029851

  Mayer bond orders larger than 0.100000
B(  0-C ,  1-H ) :   0.9763 B(  0-C ,  2-H ) :   0.9769 B(  0-C ,  3-H ) :   0.9770

FINAL SINGLE POINT ENERGY       -39.828173397063

DIPOLE MOMENT
-------------
                                X             Y             Z
Electronic contribution:      0.01357       0.00075       0.03130
Nuclear contribution   :     -0.01995      -0.01335      -0.03678
                        -----------------------------------------
Total Dipole Moment    :     -0.00638      -0.01259      -0.00548
                        -----------------------------------------
Magnitude (a.u.)       :      0.01514
Magnitude (Debye)      :      0.03849

Rotational constants in cm-1:     9.850389     9.107806     4.734035
Rotational constants in MHz : 295307.243258 273045.158992 141922.813622

                             ****ORCA TERMINATED NORMALLY****
TOTAL RUN TIME: 0 days 0 hours 0 minutes 24 seconds 264 msec
