                         Program Version 5.0.3 -  RELEASE  -
|  1> !B3LYP EPR-III Autoaux
|  2> !PAL4
|  3>
|  4> * xyz 0 2
|  5>  C    -32.2066401895    -51.2947907141    -18.6826670915
|  6>  H    -33.2945612960    -51.0053466275    -18.7685363832
|  7>  H    -31.8192350636    -52.2050677303    -18.7619286160
|  8>  H    -31.4435083459    -50.5823103716    -18.4275176409
|  9> *
| 10>
| 11> %EPRNMR
| 12>         GTENSOR   TRUE
| 13>         NUCLEI    = ALL H {AISO, ADIP, AORB}
| 14>         NUCLEI    = ALL C {AISO, ADIP, AORB}
| 15> END
| 16>
| 17>
| 18>                          ****END OF INPUT****

CARTESIAN COORDINATES (ANGSTROEM)
---------------------------------
  C    -32.206640  -51.294791  -18.682667
  H    -33.294561  -51.005347  -18.768536
  H    -31.819235  -52.205068  -18.761929
  H    -31.443508  -50.582310  -18.427518

 Total Charge           Charge          ....    0
 Multiplicity           Mult            ....    2
 Number of Electrons    NEL             ....    9
 Basis Dimension        Dim             ....   73

ORBITAL ENERGIES
----------------
                 SPIN UP ORBITALS
  NO   OCC          E(Eh)            E(eV)
   0   1.0000     -10.179199      -276.9901
   1   1.0000      -0.694498       -18.8982
   2   1.0000      -0.436195       -11.8695
   3   1.0000      -0.413930       -11.2636
   4   1.0000      -0.234891        -6.3917
   5   0.0000       0.001145         0.0312
   6   0.0000       0.035361         0.9622
   7   0.0000       0.038039         1.0351
   8   0.0000       0.047543         1.2937
   9   0.0000       0.084133         2.2894

                 SPIN DOWN ORBITALS
  NO   OCC          E(Eh)            E(eV)
   0   1.0000     -10.164831      -276.5991
   1   1.0000      -0.655435       -17.8353
   2   1.0000      -0.426470       -11.6049
   3   1.0000      -0.404116       -10.9966
   4   0.0000      -0.077527        -2.1096
   5   0.0000       0.004194         0.1141
   6   0.0000       0.035063         0.9541
   7   0.0000       0.037590         1.0229
   8   0.0000       0.060750         1.6531

MULLIKEN ATOMIC CHARGES AND SPIN POPULATIONS
--------------------------------------------
   0 C :   -0.431755    1.101675
   1 H :    0.146563   -0.036855
   2 H :    0.149538   -0.029961
   3 H :    0.135653   -0.034859
Sum of atomic charges         :   -0.0000000

LOEWDIN ATOMIC CHARGES AND SPIN POPULATIONS
-------------------------------------------
   0 C :   -0.132548    0.899931
   1 H :    0.077176    0.022327
   2 H :    0.004938    0.046039
   3 H :    0.050434    0.031703

  Mayer bond orders larger than 0.100000
B(  0-C ,  1-H ) :   0.9770 B(  0-C ,  2-H ) :   0.9797 B(  0-C ,  3-H ) :   0.9813

FINAL SINGLE POINT ENERGY       -39.819044808266

DIPOLE MOMENT
-------------
                                X             Y             Z
Electronic contribution:     -0.03389      -0.07790      -0.04834
Nuclear contribution   :      0.04693       0.06869       0.06747
                        -----------------------------------------
Total Dipole Moment    :      0.01304      -0.00921       0.01913
                        -----------------------------------------
Magnitude (a.u.)       :      0.02492
Magnitude (Debye)      :      0.06333

Rotational constants in cm-1:    11.565408     8.495855     4.900977
Rotational constants in MHz : 346722.216682 254699.332650 146927.582338

                             ****ORCA TERMINATED NORMALLY****
TOTAL RUN TIME: 0 days 0 hours 0 minutes 26 seconds 467 msec
