                         Program Version 5.0.3 -  RELEASE  -
|  1> !B3LYP EPR-III Autoaux
|  2> !PAL4
|  3>
|  4> * xyz 0 2
|  5>  C    -86.0399087749   -113.7935224043    -31.8093811895
|  6>  H    -84.9535713078   -114.0222338392    -31.7767655771
|  7>  H    -86.3450667339   -112.7580836882    -31.7243463187
|  8>  H    -86.6265982800   -114.7967661076    -31.9069914340
|  9> *
| 10>
| 11> %EPRNMR
| 12>         GTENSOR   TRUE
| 13>         NUCLEI    = ALL H {AISO, ADIP, AORB}
| 14>         NUCLEI    = ALL C {AISO, ADIP, AORB}
| 15> END
| 16>
| 17>
| 18>                          ****END OF INPUT****

CARTESIAN COORDINATES (ANGSTROEM)
---------------------------------
  C    -86.039909  -113.793522  -31.809381
  H    -84.953571  -114.022234  -31.776766
  H    -86.345067  -112.758084  -31.724346
  H    -86.626598  -114.796766  -31.906991

 Total Charge           Charge          ....    0
 Multiplicity           Mult            ....    2
 Number of Electrons    NEL             ....    9
 Basis Dimension        Dim             ....   73

ORBITAL ENERGIES
----------------
                 SPIN UP ORBITALS
  NO   OCC          E(Eh)            E(eV)
   0   1.0000     -10.196037      -277.4483
   1   1.0000      -0.678417       -18.4607
   2   1.0000      -0.434423       -11.8212
   3   1.0000      -0.392781       -10.6881
   4   1.0000      -0.235164        -6.3991
   5   0.0000      -0.000933        -0.0254
   6   0.0000       0.033901         0.9225
   7   0.0000       0.038949         1.0598
   8   0.0000       0.047251         1.2858
   9   0.0000       0.073368         1.9964

                 SPIN DOWN ORBITALS
  NO   OCC          E(Eh)            E(eV)
   0   1.0000     -10.181348      -277.0486
   1   1.0000      -0.638583       -17.3767
   2   1.0000      -0.425582       -11.5807
   3   1.0000      -0.383394       -10.4327
   4   0.0000      -0.077118        -2.0985
   5   0.0000       0.002699         0.0735
   6   0.0000       0.033676         0.9164
   7   0.0000       0.038622         1.0510
   8   0.0000       0.060607         1.6492

MULLIKEN ATOMIC CHARGES AND SPIN POPULATIONS
--------------------------------------------
   0 C :   -0.432722    1.112694
   1 H :    0.132908   -0.037418
   2 H :    0.154956   -0.033752
   3 H :    0.144858   -0.041524
Sum of atomic charges         :   -0.0000000

LOEWDIN ATOMIC CHARGES AND SPIN POPULATIONS
-------------------------------------------
   0 C :   -0.184798    0.925168
   1 H :    0.054973    0.026820
   2 H :    0.047080    0.030682
   3 H :    0.082746    0.017331

  Mayer bond orders larger than 0.100000
B(  0-C ,  1-H ) :   0.9744 B(  0-C ,  2-H ) :   0.9707 B(  0-C ,  3-H ) :   0.9711

FINAL SINGLE POINT ENERGY       -39.819839549945

DIPOLE MOMENT
-------------
                                X             Y             Z
Electronic contribution:     -0.12116       0.14223      -0.00650
Nuclear contribution   :      0.14577      -0.14729       0.01502
                        -----------------------------------------
Total Dipole Moment    :      0.02460      -0.00506       0.00852
                        -----------------------------------------
Magnitude (a.u.)       :      0.02652
Magnitude (Debye)      :      0.06742

Rotational constants in cm-1:    10.350742     7.794597     4.446834
Rotational constants in MHz : 310307.425441 233676.126699 133312.716515

                             ****ORCA TERMINATED NORMALLY****
TOTAL RUN TIME: 0 days 0 hours 0 minutes 23 seconds 534 msec
