                         Program Version 5.0.3 -  RELEASE  -
|  1> !B3LYP EPR-III Autoaux
|  2> !PAL4
|  3>
|  4> * xyz 0 2
|  5>  C     10.9371440876     -2.4374255682     -7.5832914536
|  6>  H     11.5687802034     -1.9771621171     -8.3011230590
|  7>  H     10.8391140588     -2.1529126479     -6.4546376755
|  8>  H     10.6430151258     -3.4969691998     -7.8969758939
|  9> *
| 10>
| 11> %EPRNMR
| 12>         GTENSOR   TRUE
| 13>         NUCLEI    = ALL H {AISO, ADIP, AORB}
| 14>         NUCLEI    = ALL C {AISO, ADIP, AORB}
| 15> END
| 16>
| 17>
| 18>                          ****END OF INPUT****

CARTESIAN COORDINATES (ANGSTROEM)
---------------------------------
  C     10.937144   -2.437426   -7.583291
  H     11.568780   -1.977162   -8.301123
  H     10.839114   -2.152913   -6.454638
  H     10.643015   -3.496969   -7.896976

 Total Charge           Charge          ....    0
 Multiplicity           Mult            ....    2
 Number of Electrons    NEL             ....    9
 Basis Dimension        Dim             ....   73

ORBITAL ENERGIES
----------------
                 SPIN UP ORBITALS
  NO   OCC          E(Eh)            E(eV)
   0   1.0000     -10.197670      -277.4927
   1   1.0000      -0.678272       -18.4567
   2   1.0000      -0.424625       -11.5546
   3   1.0000      -0.399182       -10.8623
   4   1.0000      -0.238724        -6.4960
   5   0.0000      -0.001114        -0.0303
   6   0.0000       0.035335         0.9615
   7   0.0000       0.038198         1.0394
   8   0.0000       0.047114         1.2820
   9   0.0000       0.078115         2.1256

                 SPIN DOWN ORBITALS
  NO   OCC          E(Eh)            E(eV)
   0   1.0000     -10.182887      -277.0904
   1   1.0000      -0.639033       -17.3890
   2   1.0000      -0.415236       -11.2991
   3   1.0000      -0.389870       -10.6089
   4   0.0000      -0.079147        -2.1537
   5   0.0000       0.002386         0.0649
   6   0.0000       0.035165         0.9569
   7   0.0000       0.037916         1.0318
   8   0.0000       0.060288         1.6405

MULLIKEN ATOMIC CHARGES AND SPIN POPULATIONS
--------------------------------------------
   0 C :   -0.422917    1.103543
   1 H :    0.146880   -0.030842
   2 H :    0.144708   -0.036191
   3 H :    0.131329   -0.036510
Sum of atomic charges         :   -0.0000000

LOEWDIN ATOMIC CHARGES AND SPIN POPULATIONS
-------------------------------------------
   0 C :   -0.184960    0.924835
   1 H :    0.033023    0.034910
   2 H :    0.082617    0.018279
   3 H :    0.069321    0.021977

  Mayer bond orders larger than 0.100000
B(  0-C ,  1-H ) :   0.9717 B(  0-C ,  2-H ) :   0.9696 B(  0-C ,  3-H ) :   0.9741

FINAL SINGLE POINT ENERGY       -39.819626994938

DIPOLE MOMENT
-------------
                                X             Y             Z
Electronic contribution:     -0.09317       0.19006      -0.05608
Nuclear contribution   :      0.17948      -0.23591       0.07280
                        -----------------------------------------
Total Dipole Moment    :      0.08632      -0.04585       0.01672
                        -----------------------------------------
Magnitude (a.u.)       :      0.09916
Magnitude (Debye)      :      0.25204

Rotational constants in cm-1:     9.790063     7.907330     4.458949
Rotational constants in MHz : 293498.717889 237055.776458 133675.920658

                             ****ORCA TERMINATED NORMALLY****
TOTAL RUN TIME: 0 days 0 hours 0 minutes 22 seconds 789 msec
