                         Program Version 5.0.3 -  RELEASE  -
|  1> !B3LYP EPR-III Autoaux
|  2> !PAL4
|  3>
|  4> * xyz 0 2
|  5>  C    -54.6794116410    -76.4073494238    -24.3429156577
|  6>  H    -55.0716557203    -77.4144699324    -24.3736041564
|  7>  H    -53.5360700713    -76.2051115793    -24.3567812238
|  8>  H    -55.4264602943    -75.6499195347    -24.2885877160
|  9> *
| 10>
| 11> %EPRNMR
| 12>         GTENSOR   TRUE
| 13>         NUCLEI    = ALL H {AISO, ADIP, AORB}
| 14>         NUCLEI    = ALL C {AISO, ADIP, AORB}
| 15> END
| 16>
| 17>
| 18>                          ****END OF INPUT****

CARTESIAN COORDINATES (ANGSTROEM)
---------------------------------
  C    -54.679412  -76.407349  -24.342916
  H    -55.071656  -77.414470  -24.373604
  H    -53.536070  -76.205112  -24.356781
  H    -55.426460  -75.649920  -24.288588

 Total Charge           Charge          ....    0
 Multiplicity           Mult            ....    2
 Number of Electrons    NEL             ....    9
 Basis Dimension        Dim             ....   73

ORBITAL ENERGIES
----------------
                 SPIN UP ORBITALS
  NO   OCC          E(Eh)            E(eV)
   0   1.0000     -10.190539      -277.2987
   1   1.0000      -0.682815       -18.5804
   2   1.0000      -0.421215       -11.4618
   3   1.0000      -0.414028       -11.2663
   4   1.0000      -0.234771        -6.3885
   5   0.0000      -0.000043        -0.0012
   6   0.0000       0.035817         0.9746
   7   0.0000       0.037419         1.0182
   8   0.0000       0.047380         1.2893
   9   0.0000       0.079916         2.1746

                 SPIN DOWN ORBITALS
  NO   OCC          E(Eh)            E(eV)
   0   1.0000     -10.175971      -276.9022
   1   1.0000      -0.643198       -17.5023
   2   1.0000      -0.412038       -11.2121
   3   1.0000      -0.404615       -11.0101
   4   0.0000      -0.077052        -2.0967
   5   0.0000       0.003373         0.0918
   6   0.0000       0.035581         0.9682
   7   0.0000       0.037033         1.0077
   8   0.0000       0.060705         1.6519

MULLIKEN ATOMIC CHARGES AND SPIN POPULATIONS
--------------------------------------------
   0 C :   -0.428153    1.107953
   1 H :    0.140137   -0.034846
   2 H :    0.143692   -0.039446
   3 H :    0.144324   -0.033661
Sum of atomic charges         :    0.0000000

LOEWDIN ATOMIC CHARGES AND SPIN POPULATIONS
-------------------------------------------
   0 C :   -0.167537    0.916969
   1 H :    0.046079    0.031183
   2 H :    0.082827    0.018063
   3 H :    0.038631    0.033784

  Mayer bond orders larger than 0.100000
B(  0-C ,  1-H ) :   0.9753 B(  0-C ,  2-H ) :   0.9722 B(  0-C ,  3-H ) :   0.9749

FINAL SINGLE POINT ENERGY       -39.823917866424

DIPOLE MOMENT
-------------
                                X             Y             Z
Electronic contribution:     -0.01705       0.03057      -0.00388
Nuclear contribution   :      0.00303      -0.03556       0.00733
                        -----------------------------------------
Total Dipole Moment    :     -0.01402      -0.00499       0.00344
                        -----------------------------------------
Magnitude (a.u.)       :      0.01527
Magnitude (Debye)      :      0.03883

Rotational constants in cm-1:    10.303534     8.242796     4.579433
Rotational constants in MHz : 308892.171576 247112.797399 137287.962064

                             ****ORCA TERMINATED NORMALLY****
TOTAL RUN TIME: 0 days 0 hours 0 minutes 21 seconds 119 msec
