                         Program Version 5.0.3 -  RELEASE  -
|  1> !B3LYP EPR-III Autoaux
|  2> !PAL4
|  3>
|  4> * xyz 0 2
|  5>  C     -6.2751820896    -22.0288185619    -12.0044626883
|  6>  H     -5.5160881008    -21.2531862696    -12.4491761423
|  7>  H     -6.8846289055    -21.9526568939    -11.1498054010
|  8>  H     -6.1892426601    -23.0154555172    -12.4972640012
|  9> *
| 10>
| 11> %EPRNMR
| 12>         GTENSOR   TRUE
| 13>         NUCLEI    = ALL H {AISO, ADIP, AORB}
| 14>         NUCLEI    = ALL C {AISO, ADIP, AORB}
| 15> END
| 16>
| 17>
| 18>                          ****END OF INPUT****

CARTESIAN COORDINATES (ANGSTROEM)
---------------------------------
  C     -6.275182  -22.028819  -12.004463
  H     -5.516088  -21.253186  -12.449176
  H     -6.884629  -21.952657  -11.149805
  H     -6.189243  -23.015456  -12.497264

 Total Charge           Charge          ....    0
 Multiplicity           Mult            ....    2
 Number of Electrons    NEL             ....    9
 Basis Dimension        Dim             ....   73

ORBITAL ENERGIES
----------------
                 SPIN UP ORBITALS
  NO   OCC          E(Eh)            E(eV)
   0   1.0000     -10.193245      -277.3723
   1   1.0000      -0.681293       -18.5389
   2   1.0000      -0.433612       -11.7992
   3   1.0000      -0.398019       -10.8306
   4   1.0000      -0.235830        -6.4173
   5   0.0000      -0.000435        -0.0118
   6   0.0000       0.034652         0.9429
   7   0.0000       0.038448         1.0462
   8   0.0000       0.047281         1.2866
   9   0.0000       0.076814         2.0902

                 SPIN DOWN ORBITALS
  NO   OCC          E(Eh)            E(eV)
   0   1.0000     -10.178601      -276.9738
   1   1.0000      -0.641653       -17.4603
   2   1.0000      -0.424349       -11.5471
   3   1.0000      -0.388790       -10.5795
   4   0.0000      -0.077584        -2.1112
   5   0.0000       0.003034         0.0826
   6   0.0000       0.034408         0.9363
   7   0.0000       0.038137         1.0378
   8   0.0000       0.060574         1.6483

MULLIKEN ATOMIC CHARGES AND SPIN POPULATIONS
--------------------------------------------
   0 C :   -0.428540    1.108287
   1 H :    0.141123   -0.040609
   2 H :    0.152501   -0.031342
   3 H :    0.134916   -0.036337
Sum of atomic charges         :    0.0000000

LOEWDIN ATOMIC CHARGES AND SPIN POPULATIONS
-------------------------------------------
   0 C :   -0.173191    0.920162
   1 H :    0.085697    0.016566
   2 H :    0.031993    0.035940
   3 H :    0.055502    0.027332

  Mayer bond orders larger than 0.100000
B(  0-C ,  1-H ) :   0.9725 B(  0-C ,  2-H ) :   0.9730 B(  0-C ,  3-H ) :   0.9752

FINAL SINGLE POINT ENERGY       -39.820951531900

DIPOLE MOMENT
-------------
                                X             Y             Z
Electronic contribution:     -0.14594       0.07029       0.08346
Nuclear contribution   :      0.17657      -0.10106      -0.06210
                        -----------------------------------------
Total Dipole Moment    :      0.03063      -0.03077       0.02136
                        -----------------------------------------
Magnitude (a.u.)       :      0.04839
Magnitude (Debye)      :      0.12299

Rotational constants in cm-1:    10.037429     8.188602     4.526533
Rotational constants in MHz : 300914.561778 245488.106845 135702.033307

                             ****ORCA TERMINATED NORMALLY****
TOTAL RUN TIME: 0 days 0 hours 0 minutes 24 seconds 269 msec
