                         Program Version 5.0.3 -  RELEASE  -
|  1> !B3LYP EPR-III Autoaux
|  2> !PAL4
|  3>
|  4> * xyz 0 2
|  5>  C    -61.3145068849    -83.8598760932    -25.9988118391
|  6>  H    -62.1910084153    -84.5431479154    -26.0146601502
|  7>  H    -60.2245716361    -84.1936161546    -26.0264413420
|  8>  H    -61.3419009456    -82.7734609312    -25.9029431392
|  9> *
| 10>
| 11> %EPRNMR
| 12>         GTENSOR   TRUE
| 13>         NUCLEI    = ALL H {AISO, ADIP, AORB}
| 14>         NUCLEI    = ALL C {AISO, ADIP, AORB}
| 15> END
| 16>
| 17>
| 18>                          ****END OF INPUT****

CARTESIAN COORDINATES (ANGSTROEM)
---------------------------------
  C    -61.314507  -83.859876  -25.998812
  H    -62.191008  -84.543148  -26.014660
  H    -60.224572  -84.193616  -26.026441
  H    -61.341901  -82.773461  -25.902943

 Total Charge           Charge          ....    0
 Multiplicity           Mult            ....    2
 Number of Electrons    NEL             ....    9
 Basis Dimension        Dim             ....   73

ORBITAL ENERGIES
----------------
                 SPIN UP ORBITALS
  NO   OCC          E(Eh)            E(eV)
   0   1.0000     -10.194423      -277.4043
   1   1.0000      -0.679200       -18.4820
   2   1.0000      -0.432081       -11.7575
   3   1.0000      -0.398018       -10.8306
   4   1.0000      -0.235039        -6.3957
   5   0.0000      -0.000449        -0.0122
   6   0.0000       0.034621         0.9421
   7   0.0000       0.038503         1.0477
   8   0.0000       0.047300         1.2871
   9   0.0000       0.081622         2.2210

                 SPIN DOWN ORBITALS
  NO   OCC          E(Eh)            E(eV)
   0   1.0000     -10.179780      -277.0059
   1   1.0000      -0.639419       -17.3995
   2   1.0000      -0.423128       -11.5139
   3   1.0000      -0.388674       -10.5764
   4   0.0000      -0.077116        -2.0984
   5   0.0000       0.003072         0.0836
   6   0.0000       0.034357         0.9349
   7   0.0000       0.038154         1.0382
   8   0.0000       0.060648         1.6503

MULLIKEN ATOMIC CHARGES AND SPIN POPULATIONS
--------------------------------------------
   0 C :   -0.430166    1.110592
   1 H :    0.152487   -0.035244
   2 H :    0.135712   -0.039274
   3 H :    0.141968   -0.036074
Sum of atomic charges         :   -0.0000000

LOEWDIN ATOMIC CHARGES AND SPIN POPULATIONS
-------------------------------------------
   0 C :   -0.180207    0.922636
   1 H :    0.061289    0.025890
   2 H :    0.070200    0.021835
   3 H :    0.048718    0.029639

  Mayer bond orders larger than 0.100000
B(  0-C ,  1-H ) :   0.9704 B(  0-C ,  2-H ) :   0.9743 B(  0-C ,  3-H ) :   0.9735

FINAL SINGLE POINT ENERGY       -39.823149931521

DIPOLE MOMENT
-------------
                                X             Y             Z
Electronic contribution:     -0.13417      -0.04081      -0.02454
Nuclear contribution   :      0.13943       0.05202       0.03927
                        -----------------------------------------
Total Dipole Moment    :      0.00526       0.01121       0.01472
                        -----------------------------------------
Magnitude (a.u.)       :      0.01924
Magnitude (Debye)      :      0.04890

Rotational constants in cm-1:    10.207513     8.020347     4.493002
Rotational constants in MHz : 306013.538015 240443.963091 134696.799933

                             ****ORCA TERMINATED NORMALLY****
TOTAL RUN TIME: 0 days 0 hours 0 minutes 23 seconds 623 msec
