                         Program Version 5.0.3 -  RELEASE  -
|  1> !B3LYP EPR-III Autoaux
|  2> !PAL4
|  3>
|  4> * xyz 0 2
|  5>  C    -77.3717505102   -103.1835537222    -29.7386362063
|  6>  H    -77.0175185905   -104.1924705354    -29.8212435529
|  7>  H    -76.7779659463   -102.3516198244    -29.6331337293
|  8>  H    -78.4323835246   -102.8895801089    -29.7498675467
|  9> *
| 10>
| 11> %EPRNMR
| 12>         GTENSOR   TRUE
| 13>         NUCLEI    = ALL H {AISO, ADIP, AORB}
| 14>         NUCLEI    = ALL C {AISO, ADIP, AORB}
| 15> END
| 16>
| 17>
| 18>                          ****END OF INPUT****

CARTESIAN COORDINATES (ANGSTROEM)
---------------------------------
  C    -77.371751  -103.183554  -29.738636
  H    -77.017519  -104.192471  -29.821244
  H    -76.777966  -102.351620  -29.633134
  H    -78.432384  -102.889580  -29.749868

 Total Charge           Charge          ....    0
 Multiplicity           Mult            ....    2
 Number of Electrons    NEL             ....    9
 Basis Dimension        Dim             ....   73

ORBITAL ENERGIES
----------------
                 SPIN UP ORBITALS
  NO   OCC          E(Eh)            E(eV)
   0   1.0000     -10.180058      -277.0135
   1   1.0000      -0.692174       -18.8350
   2   1.0000      -0.440633       -11.9902
   3   1.0000      -0.409949       -11.1553
   4   1.0000      -0.234754        -6.3880
   5   0.0000       0.001294         0.0352
   6   0.0000       0.035159         0.9567
   7   0.0000       0.038319         1.0427
   8   0.0000       0.047548         1.2938
   9   0.0000       0.088147         2.3986

                 SPIN DOWN ORBITALS
  NO   OCC          E(Eh)            E(eV)
   0   1.0000     -10.165699      -276.6227
   1   1.0000      -0.652943       -17.7675
   2   1.0000      -0.431106       -11.7310
   3   1.0000      -0.400177       -10.8894
   4   0.0000      -0.077493        -2.1087
   5   0.0000       0.004321         0.1176
   6   0.0000       0.034794         0.9468
   7   0.0000       0.037880         1.0308
   8   0.0000       0.060764         1.6535

MULLIKEN ATOMIC CHARGES AND SPIN POPULATIONS
--------------------------------------------
   0 C :   -0.429608    1.101563
   1 H :    0.149757   -0.032840
   2 H :    0.144054   -0.032126
   3 H :    0.135797   -0.036597
Sum of atomic charges         :   -0.0000000

LOEWDIN ATOMIC CHARGES AND SPIN POPULATIONS
-------------------------------------------
   0 C :   -0.137217    0.901339
   1 H :    0.050557    0.031534
   2 H :    0.024738    0.039713
   3 H :    0.061921    0.027414

  Mayer bond orders larger than 0.100000
B(  0-C ,  1-H ) :   0.9781 B(  0-C ,  2-H ) :   0.9797 B(  0-C ,  3-H ) :   0.9806

FINAL SINGLE POINT ENERGY       -39.824471875425

DIPOLE MOMENT
-------------
                                X             Y             Z
Electronic contribution:      0.08835      -0.07225      -0.00573
Nuclear contribution   :     -0.08440       0.08768       0.00874
                        -----------------------------------------
Total Dipole Moment    :      0.00394       0.01543       0.00301
                        -----------------------------------------
Magnitude (a.u.)       :      0.01621
Magnitude (Debye)      :      0.04121

Rotational constants in cm-1:    11.078345     8.773577     4.896102
Rotational constants in MHz : 332120.414423 263025.227736 146781.454780

                             ****ORCA TERMINATED NORMALLY****
TOTAL RUN TIME: 0 days 0 hours 0 minutes 20 seconds 861 msec
