                         Program Version 5.0.3 -  RELEASE  -
|  1> !B3LYP EPR-III Autoaux
|  2> !PAL4
|  3>
|  4> * xyz 0 2
|  5>  C    -39.2172522974    -59.1687665460    -20.4438256665
|  6>  H    -40.3222937149    -59.1309861615    -20.4655142558
|  7>  H    -38.6105470123    -59.9629119469    -20.6365035448
|  8>  H    -38.7299139419    -58.2091751555    -20.2799198028
|  9> *
| 10>
| 11> %EPRNMR
| 12>         GTENSOR   TRUE
| 13>         NUCLEI    = ALL H {AISO, ADIP, AORB}
| 14>         NUCLEI    = ALL C {AISO, ADIP, AORB}
| 15> END
| 16>
| 17>
| 18>                          ****END OF INPUT****

CARTESIAN COORDINATES (ANGSTROEM)
---------------------------------
  C    -39.217252  -59.168767  -20.443826
  H    -40.322294  -59.130986  -20.465514
  H    -38.610547  -59.962912  -20.636504
  H    -38.729914  -58.209175  -20.279920

 Total Charge           Charge          ....    0
 Multiplicity           Mult            ....    2
 Number of Electrons    NEL             ....    9
 Basis Dimension        Dim             ....   73

ORBITAL ENERGIES
----------------
                 SPIN UP ORBITALS
  NO   OCC          E(Eh)            E(eV)
   0   1.0000     -10.181306      -277.0474
   1   1.0000      -0.691157       -18.8073
   2   1.0000      -0.440111       -11.9760
   3   1.0000      -0.409219       -11.1354
   4   1.0000      -0.235064        -6.3964
   5   0.0000       0.001212         0.0330
   6   0.0000       0.035276         0.9599
   7   0.0000       0.038199         1.0395
   8   0.0000       0.047519         1.2931
   9   0.0000       0.086546         2.3550

                 SPIN DOWN ORBITALS
  NO   OCC          E(Eh)            E(eV)
   0   1.0000     -10.166916      -276.6558
   1   1.0000      -0.651862       -17.7381
   2   1.0000      -0.430462       -11.7135
   3   1.0000      -0.399673       -10.8757
   4   0.0000      -0.077610        -2.1119
   5   0.0000       0.004258         0.1159
   6   0.0000       0.034914         0.9501
   7   0.0000       0.037783         1.0281
   8   0.0000       0.060733         1.6526

MULLIKEN ATOMIC CHARGES AND SPIN POPULATIONS
--------------------------------------------
   0 C :   -0.428553    1.101407
   1 H :    0.143405   -0.036017
   2 H :    0.151067   -0.030027
   3 H :    0.134081   -0.035363
Sum of atomic charges         :   -0.0000000

LOEWDIN ATOMIC CHARGES AND SPIN POPULATIONS
-------------------------------------------
   0 C :   -0.139241    0.902792
   1 H :    0.064901    0.026303
   2 H :    0.019481    0.041329
   3 H :    0.054858    0.029576

  Mayer bond orders larger than 0.100000
B(  0-C ,  1-H ) :   0.9781 B(  0-C ,  2-H ) :   0.9788 B(  0-C ,  3-H ) :   0.9801

FINAL SINGLE POINT ENERGY       -39.824329774873

DIPOLE MOMENT
-------------
                                X             Y             Z
Electronic contribution:      0.01515      -0.13890       0.01427
Nuclear contribution   :     -0.00824       0.15231      -0.03782
                        -----------------------------------------
Total Dipole Moment    :      0.00691       0.01342      -0.02355
                        -----------------------------------------
Magnitude (a.u.)       :      0.02797
Magnitude (Debye)      :      0.07110

Rotational constants in cm-1:    10.451758     9.073416     4.863017
Rotational constants in MHz : 313335.828844 272014.165629 145789.572260

                             ****ORCA TERMINATED NORMALLY****
TOTAL RUN TIME: 0 days 0 hours 0 minutes 19 seconds 762 msec
