                         Program Version 5.0.3 -  RELEASE  -
|  1> !B3LYP EPR-III Autoaux
|  2> !PAL4
|  3>
|  4> * xyz 0 2
|  5>  C    -33.1211530982    -52.3013592574    -18.9117660283
|  6>  H    -33.8934028833    -53.0209283435    -18.9253137982
|  7>  H    -32.1624215930    -52.7908610242    -19.0903800850
|  8>  H    -33.2214565354    -51.2898199315    -18.6267828664
|  9> *
| 10>
| 11> %EPRNMR
| 12>         GTENSOR   TRUE
| 13>         NUCLEI    = ALL H {AISO, ADIP, AORB}
| 14>         NUCLEI    = ALL C {AISO, ADIP, AORB}
| 15> END
| 16>
| 17>
| 18>                          ****END OF INPUT****

CARTESIAN COORDINATES (ANGSTROEM)
---------------------------------
  C    -33.121153  -52.301359  -18.911766
  H    -33.893403  -53.020928  -18.925314
  H    -32.162422  -52.790861  -19.090380
  H    -33.221457  -51.289820  -18.626783

 Total Charge           Charge          ....    0
 Multiplicity           Mult            ....    2
 Number of Electrons    NEL             ....    9
 Basis Dimension        Dim             ....   73

ORBITAL ENERGIES
----------------
                 SPIN UP ORBITALS
  NO   OCC          E(Eh)            E(eV)
   0   1.0000     -10.180474      -277.0248
   1   1.0000      -0.691640       -18.8205
   2   1.0000      -0.442186       -12.0325
   3   1.0000      -0.407981       -11.1017
   4   1.0000      -0.235361        -6.4045
   5   0.0000       0.001323         0.0360
   6   0.0000       0.035070         0.9543
   7   0.0000       0.038498         1.0476
   8   0.0000       0.047535         1.2935
   9   0.0000       0.089387         2.4323

                 SPIN DOWN ORBITALS
  NO   OCC          E(Eh)            E(eV)
   0   1.0000     -10.166099      -276.6336
   1   1.0000      -0.652463       -17.7544
   2   1.0000      -0.432664       -11.7734
   3   1.0000      -0.398206       -10.8357
   4   0.0000      -0.077843        -2.1182
   5   0.0000       0.004321         0.1176
   6   0.0000       0.034703         0.9443
   7   0.0000       0.038061         1.0357
   8   0.0000       0.060731         1.6526

MULLIKEN ATOMIC CHARGES AND SPIN POPULATIONS
--------------------------------------------
   0 C :   -0.427992    1.100346
   1 H :    0.141421   -0.033442
   2 H :    0.135916   -0.035637
   3 H :    0.150655   -0.031267
Sum of atomic charges         :    0.0000000

LOEWDIN ATOMIC CHARGES AND SPIN POPULATIONS
-------------------------------------------
   0 C :   -0.138755    0.901726
   1 H :    0.039977    0.034801
   2 H :    0.057140    0.029007
   3 H :    0.041638    0.034466

  Mayer bond orders larger than 0.100000
B(  0-C ,  1-H ) :   0.9800 B(  0-C ,  2-H ) :   0.9805 B(  0-C ,  3-H ) :   0.9784

FINAL SINGLE POINT ENERGY       -39.825745895403

DIPOLE MOMENT
-------------
                                X             Y             Z
Electronic contribution:     -0.06092       0.12623      -0.03265
Nuclear contribution   :      0.06459      -0.14805       0.06957
                        -----------------------------------------
Total Dipole Moment    :      0.00367      -0.02181       0.03692
                        -----------------------------------------
Magnitude (a.u.)       :      0.04304
Magnitude (Debye)      :      0.10939

Rotational constants in cm-1:    10.835907     8.905944     4.903757
Rotational constants in MHz : 324852.329204 266993.485515 147010.928578

                             ****ORCA TERMINATED NORMALLY****
TOTAL RUN TIME: 0 days 0 hours 0 minutes 25 seconds 831 msec
