                         Program Version 5.0.3 -  RELEASE  -
|  1> !B3LYP EPR-III Autoaux
|  2> !PAL4
|  3>
|  4> * xyz 0 2
|  5>  C    -63.4626017871    -86.3984216319    -26.5062357292
|  6>  H    -62.6121052565    -87.0088897637    -26.5703016984
|  7>  H    -63.4827975639    -85.3686045038    -26.3680955233
|  8>  H    -64.4868078859    -86.7588135327    -26.5430218455
|  9> *
| 10>
| 11> %EPRNMR
| 12>         GTENSOR   TRUE
| 13>         NUCLEI    = ALL H {AISO, ADIP, AORB}
| 14>         NUCLEI    = ALL C {AISO, ADIP, AORB}
| 15> END
| 16>
| 17>
| 18>                          ****END OF INPUT****

CARTESIAN COORDINATES (ANGSTROEM)
---------------------------------
  C    -63.462602  -86.398422  -26.506236
  H    -62.612105  -87.008890  -26.570302
  H    -63.482798  -85.368605  -26.368096
  H    -64.486808  -86.758814  -26.543022

 Total Charge           Charge          ....    0
 Multiplicity           Mult            ....    2
 Number of Electrons    NEL             ....    9
 Basis Dimension        Dim             ....   73

ORBITAL ENERGIES
----------------
                 SPIN UP ORBITALS
  NO   OCC          E(Eh)            E(eV)
   0   1.0000     -10.177527      -276.9446
   1   1.0000      -0.694391       -18.8953
   2   1.0000      -0.446525       -12.1506
   3   1.0000      -0.407903       -11.0996
   4   1.0000      -0.234828        -6.3900
   5   0.0000       0.001565         0.0426
   6   0.0000       0.034828         0.9477
   7   0.0000       0.038655         1.0519
   8   0.0000       0.047585         1.2948
   9   0.0000       0.089953         2.4478

                 SPIN DOWN ORBITALS
  NO   OCC          E(Eh)            E(eV)
   0   1.0000     -10.163216      -276.5552
   1   1.0000      -0.655238       -17.8299
   2   1.0000      -0.436944       -11.8899
   3   1.0000      -0.398028       -10.8309
   4   0.0000      -0.077655        -2.1131
   5   0.0000       0.004512         0.1228
   6   0.0000       0.034450         0.9374
   7   0.0000       0.038195         1.0393
   8   0.0000       0.060772         1.6537

MULLIKEN ATOMIC CHARGES AND SPIN POPULATIONS
--------------------------------------------
   0 C :   -0.429972    1.100027
   1 H :    0.151871   -0.031066
   2 H :    0.142549   -0.033074
   3 H :    0.135552   -0.035887
Sum of atomic charges         :   -0.0000000

LOEWDIN ATOMIC CHARGES AND SPIN POPULATIONS
-------------------------------------------
   0 C :   -0.130191    0.897597
   1 H :    0.040126    0.035343
   2 H :    0.033231    0.037437
   3 H :    0.056834    0.029623

  Mayer bond orders larger than 0.100000
B(  0-C ,  1-H ) :   0.9796 B(  0-C ,  2-H ) :   0.9812 B(  0-C ,  3-H ) :   0.9818

FINAL SINGLE POINT ENERGY       -39.824226206704

DIPOLE MOMENT
-------------
                                X             Y             Z
Electronic contribution:      0.13496      -0.03303      -0.01778
Nuclear contribution   :     -0.14533       0.04419       0.02795
                        -----------------------------------------
Total Dipole Moment    :     -0.01036       0.01116       0.01017
                        -----------------------------------------
Magnitude (a.u.)       :      0.01831
Magnitude (Debye)      :      0.04654

Rotational constants in cm-1:    11.263818     8.928819     4.981369
Rotational constants in MHz : 337680.764862 267679.272357 149337.693196

                             ****ORCA TERMINATED NORMALLY****
TOTAL RUN TIME: 0 days 0 hours 0 minutes 38 seconds 570 msec
