                         Program Version 5.0.3 -  RELEASE  -
|  1> !B3LYP EPR-III Autoaux
|  2> !PAL4
|  3>
|  4> * xyz 0 2
|  5>  C    -57.1569617985    -79.1804161024    -24.9772196819
|  6>  H    -56.1353695373    -78.8574222218    -24.9719467473
|  7>  H    -57.8587439852    -78.3384771828    -24.8404703713
|  8>  H    -57.4742751752    -80.1675266545    -25.0529884991
|  9> *
| 10>
| 11> %EPRNMR
| 12>         GTENSOR   TRUE
| 13>         NUCLEI    = ALL H {AISO, ADIP, AORB}
| 14>         NUCLEI    = ALL C {AISO, ADIP, AORB}
| 15> END
| 16>
| 17>
| 18>                          ****END OF INPUT****

CARTESIAN COORDINATES (ANGSTROEM)
---------------------------------
  C    -57.156962  -79.180416  -24.977220
  H    -56.135370  -78.857422  -24.971947
  H    -57.858744  -78.338477  -24.840470
  H    -57.474275  -80.167527  -25.052988

 Total Charge           Charge          ....    0
 Multiplicity           Mult            ....    2
 Number of Electrons    NEL             ....    9
 Basis Dimension        Dim             ....   73

ORBITAL ENERGIES
----------------
                 SPIN UP ORBITALS
  NO   OCC          E(Eh)            E(eV)
   0   1.0000     -10.181728      -277.0589
   1   1.0000      -0.690216       -18.7817
   2   1.0000      -0.440681       -11.9915
   3   1.0000      -0.408569       -11.1177
   4   1.0000      -0.234866        -6.3910
   5   0.0000       0.001249         0.0340
   6   0.0000       0.035264         0.9596
   7   0.0000       0.038221         1.0401
   8   0.0000       0.047521         1.2931
   9   0.0000       0.088603         2.4110

                 SPIN DOWN ORBITALS
  NO   OCC          E(Eh)            E(eV)
   0   1.0000     -10.167341      -276.6674
   1   1.0000      -0.650846       -17.7104
   2   1.0000      -0.431113       -11.7312
   3   1.0000      -0.399037       -10.8583
   4   0.0000      -0.077505        -2.1090
   5   0.0000       0.004301         0.1170
   6   0.0000       0.034886         0.9493
   7   0.0000       0.037805         1.0287
   8   0.0000       0.060748         1.6530

MULLIKEN ATOMIC CHARGES AND SPIN POPULATIONS
--------------------------------------------
   0 C :   -0.427964    1.101729
   1 H :    0.141396   -0.034376
   2 H :    0.135790   -0.036511
   3 H :    0.150778   -0.030842
Sum of atomic charges         :    0.0000000

LOEWDIN ATOMIC CHARGES AND SPIN POPULATIONS
-------------------------------------------
   0 C :   -0.141332    0.903555
   1 H :    0.047261    0.032166
   2 H :    0.062286    0.026891
   3 H :    0.031785    0.037388

  Mayer bond orders larger than 0.100000
B(  0-C ,  1-H ) :   0.9790 B(  0-C ,  2-H ) :   0.9795 B(  0-C ,  3-H ) :   0.9781

FINAL SINGLE POINT ENERGY       -39.826209521419

DIPOLE MOMENT
-------------
                                X             Y             Z
Electronic contribution:      0.00313      -0.12784      -0.03573
Nuclear contribution   :      0.00187       0.13327       0.04966
                        -----------------------------------------
Total Dipole Moment    :      0.00500       0.00544       0.01393
                        -----------------------------------------
Magnitude (a.u.)       :      0.01577
Magnitude (Debye)      :      0.04007

Rotational constants in cm-1:    10.265020     9.199836     4.853292
Rotational constants in MHz : 307737.546194 275804.142977 145498.033796

                             ****ORCA TERMINATED NORMALLY****
TOTAL RUN TIME: 0 days 0 hours 0 minutes 20 seconds 367 msec
