                         Program Version 5.0.3 -  RELEASE  -
|  1> !B3LYP EPR-III Autoaux
|  2> !PAL4
|  3>
|  4> * xyz 0 2
|  5>  C    -57.9957422261    -80.1004676238    -25.1854537191
|  6>  H    -57.3176855393    -79.2487862438    -25.1366751102
|  7>  H    -59.1414829219    -80.1339406017    -25.1461472229
|  8>  H    -57.6127831342    -81.0800378957    -25.2380040751
|  9> *
| 10>
| 11> %EPRNMR
| 12>         GTENSOR   TRUE
| 13>         NUCLEI    = ALL H {AISO, ADIP, AORB}
| 14>         NUCLEI    = ALL C {AISO, ADIP, AORB}
| 15> END
| 16>
| 17>
| 18>                          ****END OF INPUT****

CARTESIAN COORDINATES (ANGSTROEM)
---------------------------------
  C    -57.995742  -80.100468  -25.185454
  H    -57.317686  -79.248786  -25.136675
  H    -59.141483  -80.133941  -25.146147
  H    -57.612783  -81.080038  -25.238004

 Total Charge           Charge          ....    0
 Multiplicity           Mult            ....    2
 Number of Electrons    NEL             ....    9
 Basis Dimension        Dim             ....   73

ORBITAL ENERGIES
----------------
                 SPIN UP ORBITALS
  NO   OCC          E(Eh)            E(eV)
   0   1.0000     -10.188923      -277.2547
   1   1.0000      -0.684630       -18.6297
   2   1.0000      -0.433830       -11.8051
   3   1.0000      -0.403284       -10.9739
   4   1.0000      -0.234914        -6.3923
   5   0.0000       0.000083         0.0023
   6   0.0000       0.034713         0.9446
   7   0.0000       0.038492         1.0474
   8   0.0000       0.047393         1.2896
   9   0.0000       0.078407         2.1336

                 SPIN DOWN ORBITALS
  NO   OCC          E(Eh)            E(eV)
   0   1.0000     -10.174384      -276.8591
   1   1.0000      -0.645118       -17.5546
   2   1.0000      -0.424726       -11.5574
   3   1.0000      -0.393646       -10.7116
   4   0.0000      -0.077236        -2.1017
   5   0.0000       0.003433         0.0934
   6   0.0000       0.034423         0.9367
   7   0.0000       0.038116         1.0372
   8   0.0000       0.060692         1.6515

MULLIKEN ATOMIC CHARGES AND SPIN POPULATIONS
--------------------------------------------
   0 C :   -0.430840    1.107620
   1 H :    0.151161   -0.034111
   2 H :    0.140190   -0.039785
   3 H :    0.139490   -0.033723
Sum of atomic charges         :   -0.0000000

LOEWDIN ATOMIC CHARGES AND SPIN POPULATIONS
-------------------------------------------
   0 C :   -0.163711    0.914593
   1 H :    0.054104    0.029184
   2 H :    0.077753    0.020266
   3 H :    0.031854    0.035957

  Mayer bond orders larger than 0.100000
B(  0-C ,  1-H ) :   0.9741 B(  0-C ,  2-H ) :   0.9755 B(  0-C ,  3-H ) :   0.9762

FINAL SINGLE POINT ENERGY       -39.822682053144

DIPOLE MOMENT
-------------
                                X             Y             Z
Electronic contribution:      0.07502       0.09509      -0.01634
Nuclear contribution   :     -0.06350      -0.12094       0.02663
                        -----------------------------------------
Total Dipole Moment    :      0.01153      -0.02585       0.01029
                        -----------------------------------------
Magnitude (a.u.)       :      0.03012
Magnitude (Debye)      :      0.07656

Rotational constants in cm-1:    10.852897     8.082723     4.633848
Rotational constants in MHz : 325361.661203 242313.947511 138919.265605

                             ****ORCA TERMINATED NORMALLY****
TOTAL RUN TIME: 0 days 0 hours 0 minutes 18 seconds 256 msec
