                         Program Version 5.0.3 -  RELEASE  -
|  1> !B3LYP EPR-III Autoaux
|  2> !PAL4
|  3>
|  4> * xyz 0 2
|  5>  C    -87.0622107445   -115.0663790879    -32.0320731178
|  6>  H    -86.1862503147   -114.4173682372    -31.9337415907
|  7>  H    -88.1017025585   -114.6796495231    -32.0409323700
|  8>  H    -86.7562558976   -116.1923174143    -32.1040312165
|  9> *
| 10>
| 11> %EPRNMR
| 12>         GTENSOR   TRUE
| 13>         NUCLEI    = ALL H {AISO, ADIP, AORB}
| 14>         NUCLEI    = ALL C {AISO, ADIP, AORB}
| 15> END
| 16>
| 17>
| 18>                          ****END OF INPUT****

CARTESIAN COORDINATES (ANGSTROEM)
---------------------------------
  C    -87.062211  -115.066379  -32.032073
  H    -86.186250  -114.417368  -31.933742
  H    -88.101703  -114.679650  -32.040932
  H    -86.756256  -116.192317  -32.104031

 Total Charge           Charge          ....    0
 Multiplicity           Mult            ....    2
 Number of Electrons    NEL             ....    9
 Basis Dimension        Dim             ....   73

ORBITAL ENERGIES
----------------
                 SPIN UP ORBITALS
  NO   OCC          E(Eh)            E(eV)
   0   1.0000     -10.197207      -277.4801
   1   1.0000      -0.676614       -18.4116
   2   1.0000      -0.427089       -11.6217
   3   1.0000      -0.399451       -10.8696
   4   1.0000      -0.235022        -6.3953
   5   0.0000      -0.000949        -0.0258
   6   0.0000       0.035027         0.9531
   7   0.0000       0.038040         1.0351
   8   0.0000       0.047251         1.2858
   9   0.0000       0.078345         2.1319

                 SPIN DOWN ORBITALS
  NO   OCC          E(Eh)            E(eV)
   0   1.0000     -10.182503      -277.0800
   1   1.0000      -0.636649       -17.3241
   2   1.0000      -0.418121       -11.3777
   3   1.0000      -0.390366       -10.6224
   4   0.0000      -0.076956        -2.0941
   5   0.0000       0.002717         0.0739
   6   0.0000       0.034770         0.9461
   7   0.0000       0.037749         1.0272
   8   0.0000       0.060629         1.6498

MULLIKEN ATOMIC CHARGES AND SPIN POPULATIONS
--------------------------------------------
   0 C :   -0.428833    1.112254
   1 H :    0.141214   -0.035917
   2 H :    0.150564   -0.035392
   3 H :    0.137055   -0.040944
Sum of atomic charges         :    0.0000000

LOEWDIN ATOMIC CHARGES AND SPIN POPULATIONS
-------------------------------------------
   0 C :   -0.186887    0.926783
   1 H :    0.048342    0.029265
   2 H :    0.058025    0.026534
   3 H :    0.080520    0.017418

  Mayer bond orders larger than 0.100000
B(  0-C ,  1-H ) :   0.9719 B(  0-C ,  2-H ) :   0.9696 B(  0-C ,  3-H ) :   0.9718

FINAL SINGLE POINT ENERGY       -39.822184572757

DIPOLE MOMENT
-------------
                                X             Y             Z
Electronic contribution:     -0.09591       0.07760      -0.00676
Nuclear contribution   :      0.10674      -0.06760       0.01313
                        -----------------------------------------
Total Dipole Moment    :      0.01083       0.00999       0.00637
                        -----------------------------------------
Magnitude (a.u.)       :      0.01606
Magnitude (Debye)      :      0.04081

Rotational constants in cm-1:     9.727427     8.064305     4.409276
Rotational constants in MHz : 291620.911399 241761.778027 132186.767359

                             ****ORCA TERMINATED NORMALLY****
TOTAL RUN TIME: 0 days 0 hours 0 minutes 23 seconds 87 msec
