                         Program Version 5.0.3 -  RELEASE  -
|  1> !B3LYP EPR-III Autoaux
|  2> !PAL4
|  3>
|  4> * xyz 0 2
|  5>  C    -41.3342099813    -61.5212747811    -20.9793061913
|  6>  H    -40.9699777384    -62.4764261730    -20.9953303507
|  7>  H    -40.6745405992    -60.6321811484    -21.0010085069
|  8>  H    -42.3665074063    -61.4490945118    -21.0481255536
|  9> *
| 10>
| 11> %EPRNMR
| 12>         GTENSOR   TRUE
| 13>         NUCLEI    = ALL H {AISO, ADIP, AORB}
| 14>         NUCLEI    = ALL C {AISO, ADIP, AORB}
| 15> END
| 16>
| 17>
| 18>                          ****END OF INPUT****

CARTESIAN COORDINATES (ANGSTROEM)
---------------------------------
  C    -41.334210  -61.521275  -20.979306
  H    -40.969978  -62.476426  -20.995330
  H    -40.674541  -60.632181  -21.001009
  H    -42.366507  -61.449095  -21.048126

 Total Charge           Charge          ....    0
 Multiplicity           Mult            ....    2
 Number of Electrons    NEL             ....    9
 Basis Dimension        Dim             ....   73

ORBITAL ENERGIES
----------------
                 SPIN UP ORBITALS
  NO   OCC          E(Eh)            E(eV)
   0   1.0000     -10.176336      -276.9122
   1   1.0000      -0.695439       -18.9238
   2   1.0000      -0.429231       -11.6800
   3   1.0000      -0.426350       -11.6016
   4   1.0000      -0.234915        -6.3924
   5   0.0000       0.001604         0.0436
   6   0.0000       0.036304         0.9879
   7   0.0000       0.037372         1.0169
   8   0.0000       0.047612         1.2956
   9   0.0000       0.088586         2.4105

                 SPIN DOWN ORBITALS
  NO   OCC          E(Eh)            E(eV)
   0   1.0000     -10.162034      -276.5230
   1   1.0000      -0.656379       -17.8610
   2   1.0000      -0.419658       -11.4195
   3   1.0000      -0.416343       -11.3293
   4   0.0000      -0.077655        -2.1131
   5   0.0000       0.004539         0.1235
   6   0.0000       0.035932         0.9778
   7   0.0000       0.036912         1.0044
   8   0.0000       0.060796         1.6543

MULLIKEN ATOMIC CHARGES AND SPIN POPULATIONS
--------------------------------------------
   0 C :   -0.428614    1.098297
   1 H :    0.144048   -0.030988
   2 H :    0.142375   -0.035436
   3 H :    0.142190   -0.031873
Sum of atomic charges         :   -0.0000000

LOEWDIN ATOMIC CHARGES AND SPIN POPULATIONS
-------------------------------------------
   0 C :   -0.125608    0.895905
   1 H :    0.024553    0.040407
   2 H :    0.068218    0.025880
   3 H :    0.032837    0.037807

  Mayer bond orders larger than 0.100000
B(  0-C ,  1-H ) :   0.9810 B(  0-C ,  2-H ) :   0.9796 B(  0-C ,  3-H ) :   0.9813

FINAL SINGLE POINT ENERGY       -39.824015375684

DIPOLE MOMENT
-------------
                                X             Y             Z
Electronic contribution:      0.00012      -0.01658       0.04895
Nuclear contribution   :     -0.00629       0.00459      -0.07985
                        -----------------------------------------
Total Dipole Moment    :     -0.00617      -0.01199      -0.03090
                        -----------------------------------------
Magnitude (a.u.)       :      0.03372
Magnitude (Debye)      :      0.08570

Rotational constants in cm-1:    11.098768     9.077434     5.002391
Rotational constants in MHz : 332732.683853 272134.619993 149967.897437

                             ****ORCA TERMINATED NORMALLY****
TOTAL RUN TIME: 0 days 0 hours 0 minutes 21 seconds 117 msec
