                         Program Version 5.0.3 -  RELEASE  -
|  1> !B3LYP EPR-III Autoaux
|  2> !PAL4
|  3>
|  4> * xyz 0 2
|  5>  C      3.7361403616    -10.6239761376     -9.4127779082
|  6>  H      3.5550311113     -9.6572268106     -9.9570109020
|  7>  H      3.4581511970    -11.5018926037     -9.8271874043
|  8>  H      4.4067567960    -10.5790643236     -8.5788920498
|  9> *
| 10>
| 11> %EPRNMR
| 12>         GTENSOR   TRUE
| 13>         NUCLEI    = ALL H {AISO, ADIP, AORB}
| 14>         NUCLEI    = ALL C {AISO, ADIP, AORB}
| 15> END
| 16>
| 17>
| 18>                          ****END OF INPUT****

CARTESIAN COORDINATES (ANGSTROEM)
---------------------------------
  C      3.736140  -10.623976   -9.412778
  H      3.555031   -9.657227   -9.957011
  H      3.458151  -11.501893   -9.827187
  H      4.406757  -10.579064   -8.578892

 Total Charge           Charge          ....    0
 Multiplicity           Mult            ....    2
 Number of Electrons    NEL             ....    9
 Basis Dimension        Dim             ....   73

ORBITAL ENERGIES
----------------
                 SPIN UP ORBITALS
  NO   OCC          E(Eh)            E(eV)
   0   1.0000     -10.180902      -277.0364
   1   1.0000      -0.692351       -18.8398
   2   1.0000      -0.438033       -11.9195
   3   1.0000      -0.412205       -11.2167
   4   1.0000      -0.236482        -6.4350
   5   0.0000       0.001147         0.0312
   6   0.0000       0.036000         0.9796
   7   0.0000       0.037698         1.0258
   8   0.0000       0.047395         1.2897
   9   0.0000       0.087764         2.3882

                 SPIN DOWN ORBITALS
  NO   OCC          E(Eh)            E(eV)
   0   1.0000     -10.166530      -276.6453
   1   1.0000      -0.653347       -17.7785
   2   1.0000      -0.428069       -11.6483
   3   1.0000      -0.402827       -10.9615
   4   0.0000      -0.078492        -2.1359
   5   0.0000       0.004126         0.1123
   6   0.0000       0.035587         0.9684
   7   0.0000       0.037301         1.0150
   8   0.0000       0.060545         1.6475

MULLIKEN ATOMIC CHARGES AND SPIN POPULATIONS
--------------------------------------------
   0 C :   -0.425829    1.097470
   1 H :    0.135157   -0.036082
   2 H :    0.149648   -0.028660
   3 H :    0.141024   -0.032729
Sum of atomic charges         :   -0.0000000

LOEWDIN ATOMIC CHARGES AND SPIN POPULATIONS
-------------------------------------------
   0 C :   -0.135117    0.900999
   1 H :    0.071871    0.023942
   2 H :    0.015063    0.042786
   3 H :    0.048184    0.032273

  Mayer bond orders larger than 0.100000
B(  0-C ,  1-H ) :   0.9795 B(  0-C ,  2-H ) :   0.9788 B(  0-C ,  3-H ) :   0.9794

FINAL SINGLE POINT ENERGY       -39.823725366636

DIPOLE MOMENT
-------------
                                X             Y             Z
Electronic contribution:     -0.10262      -0.11040       0.05956
Nuclear contribution   :      0.15853       0.10024      -0.09350
                        -----------------------------------------
Total Dipole Moment    :      0.05590      -0.01016      -0.03395
                        -----------------------------------------
Magnitude (a.u.)       :      0.06619
Magnitude (Debye)      :      0.16824

Rotational constants in cm-1:    10.010934     9.453496     4.903207
Rotational constants in MHz : 300120.262847 283408.678012 146994.444558

                             ****ORCA TERMINATED NORMALLY****
TOTAL RUN TIME: 0 days 0 hours 0 minutes 28 seconds 249 msec
