                         Program Version 5.0.3 -  RELEASE  -
|  1> !B3LYP EPR-III Autoaux
|  2> !PAL4
|  3>
|  4> * xyz 0 2
|  5>  C    -83.3911379906   -110.5633097474    -31.2019701419
|  6>  H    -84.1706508993   -111.2962774210    -31.2984045259
|  7>  H    -82.3765287375   -110.9214350704    -31.1929848337
|  8>  H    -83.7700344883   -109.5638096360    -31.1404297946
|  9> *
| 10>
| 11> %EPRNMR
| 12>         GTENSOR   TRUE
| 13>         NUCLEI    = ALL H {AISO, ADIP, AORB}
| 14>         NUCLEI    = ALL C {AISO, ADIP, AORB}
| 15> END
| 16>
| 17>
| 18>                          ****END OF INPUT****

CARTESIAN COORDINATES (ANGSTROEM)
---------------------------------
  C    -83.391138  -110.563310  -31.201970
  H    -84.170651  -111.296277  -31.298405
  H    -82.376529  -110.921435  -31.192985
  H    -83.770034  -109.563810  -31.140430

 Total Charge           Charge          ....    0
 Multiplicity           Mult            ....    2
 Number of Electrons    NEL             ....    9
 Basis Dimension        Dim             ....   73

ORBITAL ENERGIES
----------------
                 SPIN UP ORBITALS
  NO   OCC          E(Eh)            E(eV)
   0   1.0000     -10.182233      -277.0726
   1   1.0000      -0.689699       -18.7677
   2   1.0000      -0.438042       -11.9197
   3   1.0000      -0.409586       -11.1454
   4   1.0000      -0.234709        -6.3867
   5   0.0000       0.001162         0.0316
   6   0.0000       0.035091         0.9549
   7   0.0000       0.038353         1.0436
   8   0.0000       0.047523         1.2932
   9   0.0000       0.085847         2.3360

                 SPIN DOWN ORBITALS
  NO   OCC          E(Eh)            E(eV)
   0   1.0000     -10.167841      -276.6810
   1   1.0000      -0.650379       -17.6977
   2   1.0000      -0.428744       -11.6667
   3   1.0000      -0.399764       -10.8781
   4   0.0000      -0.077405        -2.1063
   5   0.0000       0.004236         0.1153
   6   0.0000       0.034731         0.9451
   7   0.0000       0.037917         1.0318
   8   0.0000       0.060762         1.6534

MULLIKEN ATOMIC CHARGES AND SPIN POPULATIONS
--------------------------------------------
   0 C :   -0.429253    1.102679
   1 H :    0.134412   -0.034768
   2 H :    0.148734   -0.033727
   3 H :    0.146107   -0.034184
Sum of atomic charges         :   -0.0000000

LOEWDIN ATOMIC CHARGES AND SPIN POPULATIONS
-------------------------------------------
   0 C :   -0.145230    0.904683
   1 H :    0.046950    0.032056
   2 H :    0.050714    0.031127
   3 H :    0.047565    0.032134

  Mayer bond orders larger than 0.100000
B(  0-C ,  1-H ) :   0.9798 B(  0-C ,  2-H ) :   0.9776 B(  0-C ,  3-H ) :   0.9784

FINAL SINGLE POINT ENERGY       -39.826612357477

DIPOLE MOMENT
-------------
                                X             Y             Z
Electronic contribution:      0.09374       0.05945       0.01450
Nuclear contribution   :     -0.10778      -0.06865      -0.01942
                        -----------------------------------------
Total Dipole Moment    :     -0.01404      -0.00920      -0.00491
                        -----------------------------------------
Magnitude (a.u.)       :      0.01748
Magnitude (Debye)      :      0.04444

Rotational constants in cm-1:    10.766448     8.788086     4.838709
Rotational constants in MHz : 322769.999016 263460.180825 145060.842064

                             ****ORCA TERMINATED NORMALLY****
TOTAL RUN TIME: 0 days 0 hours 0 minutes 20 seconds 998 msec
