                         Program Version 5.0.3 -  RELEASE  -
|  1> !B3LYP EPR-III Autoaux
|  2> !PAL4
|  3>
|  4> * xyz 0 2
|  5>  C    -66.3988893561    -89.8605181083    -27.1853689600
|  6>  H    -66.7887521893    -88.8541082171    -27.0812457710
|  7>  H    -67.1786438213    -90.5685248984    -27.2624042423
|  8>  H    -65.2659551543    -89.9818954009    -27.1421640384
|  9> *
| 10>
| 11> %EPRNMR
| 12>         GTENSOR   TRUE
| 13>         NUCLEI    = ALL H {AISO, ADIP, AORB}
| 14>         NUCLEI    = ALL C {AISO, ADIP, AORB}
| 15> END
| 16>
| 17>
| 18>                          ****END OF INPUT****

CARTESIAN COORDINATES (ANGSTROEM)
---------------------------------
  C    -66.398889  -89.860518  -27.185369
  H    -66.788752  -88.854108  -27.081246
  H    -67.178644  -90.568525  -27.262404
  H    -65.265955  -89.981895  -27.142164

 Total Charge           Charge          ....    0
 Multiplicity           Mult            ....    2
 Number of Electrons    NEL             ....    9
 Basis Dimension        Dim             ....   73

ORBITAL ENERGIES
----------------
                 SPIN UP ORBITALS
  NO   OCC          E(Eh)            E(eV)
   0   1.0000     -10.188030      -277.2304
   1   1.0000      -0.685478       -18.6528
   2   1.0000      -0.433205       -11.7881
   3   1.0000      -0.404885       -11.0175
   4   1.0000      -0.234900        -6.3920
   5   0.0000       0.000276         0.0075
   6   0.0000       0.034722         0.9448
   7   0.0000       0.038458         1.0465
   8   0.0000       0.047412         1.2901
   9   0.0000       0.079046         2.1510

                 SPIN DOWN ORBITALS
  NO   OCC          E(Eh)            E(eV)
   0   1.0000     -10.173510      -276.8353
   1   1.0000      -0.646043       -17.5797
   2   1.0000      -0.424106       -11.5405
   3   1.0000      -0.395142       -10.7524
   4   0.0000      -0.077265        -2.1025
   5   0.0000       0.003580         0.0974
   6   0.0000       0.034454         0.9376
   7   0.0000       0.038055         1.0355
   8   0.0000       0.060700         1.6517

MULLIKEN ATOMIC CHARGES AND SPIN POPULATIONS
--------------------------------------------
   0 C :   -0.430894    1.107013
   1 H :    0.133490   -0.035509
   2 H :    0.148941   -0.033342
   3 H :    0.148463   -0.038161
Sum of atomic charges         :    0.0000000

LOEWDIN ATOMIC CHARGES AND SPIN POPULATIONS
-------------------------------------------
   0 C :   -0.161860    0.913295
   1 H :    0.048027    0.030752
   2 H :    0.036672    0.034987
   3 H :    0.077160    0.020965

  Mayer bond orders larger than 0.100000
B(  0-C ,  1-H ) :   0.9778 B(  0-C ,  2-H ) :   0.9762 B(  0-C ,  3-H ) :   0.9733

FINAL SINGLE POINT ENERGY       -39.823073317386

DIPOLE MOMENT
-------------
                                X             Y             Z
Electronic contribution:      0.01451      -0.11688      -0.03632
Nuclear contribution   :     -0.02749       0.13268       0.05268
                        -----------------------------------------
Total Dipole Moment    :     -0.01299       0.01580       0.01637
                        -----------------------------------------
Magnitude (a.u.)       :      0.02620
Magnitude (Debye)      :      0.06658

Rotational constants in cm-1:    10.850920     8.165683     4.661350
Rotational constants in MHz : 325302.407381 244801.025284 139743.759485

                             ****ORCA TERMINATED NORMALLY****
TOTAL RUN TIME: 0 days 0 hours 0 minutes 21 seconds 6 msec
