                         Program Version 5.0.3 -  RELEASE  -
|  1> !B3LYP EPR-III Autoaux
|  2> !PAL4
|  3>
|  4> * xyz 0 2
|  5>  C    -88.1777523328   -116.4698238108    -32.2796745844
|  6>  H    -88.2440075941   -115.3909095788    -32.1931974469
|  7>  H    -89.1032903543   -117.0033052736    -32.3683168387
|  8>  H    -87.1255414770   -116.8889415485    -32.2668789780
|  9> *
| 10>
| 11> %EPRNMR
| 12>         GTENSOR   TRUE
| 13>         NUCLEI    = ALL H {AISO, ADIP, AORB}
| 14>         NUCLEI    = ALL C {AISO, ADIP, AORB}
| 15> END
| 16>
| 17>
| 18>                          ****END OF INPUT****

CARTESIAN COORDINATES (ANGSTROEM)
---------------------------------
  C    -88.177752  -116.469824  -32.279675
  H    -88.244008  -115.390910  -32.193197
  H    -89.103290  -117.003305  -32.368317
  H    -87.125541  -116.888942  -32.266879

 Total Charge           Charge          ....    0
 Multiplicity           Mult            ....    2
 Number of Electrons    NEL             ....    9
 Basis Dimension        Dim             ....   73

ORBITAL ENERGIES
----------------
                 SPIN UP ORBITALS
  NO   OCC          E(Eh)            E(eV)
   0   1.0000     -10.188964      -277.2558
   1   1.0000      -0.683775       -18.6065
   2   1.0000      -0.429909       -11.6984
   3   1.0000      -0.408175       -11.1070
   4   1.0000      -0.234773        -6.3885
   5   0.0000       0.000336         0.0091
   6   0.0000       0.035321         0.9611
   7   0.0000       0.037995         1.0339
   8   0.0000       0.047410         1.2901
   9   0.0000       0.081831         2.2267

                 SPIN DOWN ORBITALS
  NO   OCC          E(Eh)            E(eV)
   0   1.0000     -10.174437      -276.8605
   1   1.0000      -0.644182       -17.5291
   2   1.0000      -0.420759       -11.4494
   3   1.0000      -0.398679       -10.8486
   4   0.0000      -0.077155        -2.0995
   5   0.0000       0.003649         0.0993
   6   0.0000       0.035010         0.9527
   7   0.0000       0.037615         1.0236
   8   0.0000       0.060715         1.6521

MULLIKEN ATOMIC CHARGES AND SPIN POPULATIONS
--------------------------------------------
   0 C :   -0.428624    1.106769
   1 H :    0.136756   -0.035228
   2 H :    0.148300   -0.033566
   3 H :    0.143567   -0.037975
Sum of atomic charges         :   -0.0000000

LOEWDIN ATOMIC CHARGES AND SPIN POPULATIONS
-------------------------------------------
   0 C :   -0.163898    0.914557
   1 H :    0.047776    0.030674
   2 H :    0.044112    0.032336
   3 H :    0.072010    0.022433

  Mayer bond orders larger than 0.100000
B(  0-C ,  1-H ) :   0.9765 B(  0-C ,  2-H ) :   0.9749 B(  0-C ,  3-H ) :   0.9743

FINAL SINGLE POINT ENERGY       -39.825707641369

DIPOLE MOMENT
-------------
                                X             Y             Z
Electronic contribution:     -0.04909      -0.07914      -0.00764
Nuclear contribution   :      0.04528       0.09467       0.00797
                        -----------------------------------------
Total Dipole Moment    :     -0.00381       0.01553       0.00033
                        -----------------------------------------
Magnitude (a.u.)       :      0.01600
Magnitude (Debye)      :      0.04066

Rotational constants in cm-1:    10.234131     8.478377     4.636948
Rotational constants in MHz : 306811.517166 254175.352894 139012.188987

                             ****ORCA TERMINATED NORMALLY****
TOTAL RUN TIME: 0 days 0 hours 0 minutes 22 seconds 938 msec
