                         Program Version 5.0.3 -  RELEASE  -
|  1> !B3LYP EPR-III Autoaux
|  2> !PAL4
|  3>
|  4> * xyz 0 2
|  5>  C    -19.1955419223    -36.6046179711    -15.3523007806
|  6>  H    -19.6368577884    -35.7236584836    -15.6956198874
|  7>  H    -19.6659132672    -37.5647778906    -15.2584279737
|  8>  H    -18.1501585363    -36.5913647240    -15.0779535028
|  9> *
| 10>
| 11> %EPRNMR
| 12>         GTENSOR   TRUE
| 13>         NUCLEI    = ALL H {AISO, ADIP, AORB}
| 14>         NUCLEI    = ALL C {AISO, ADIP, AORB}
| 15> END
| 16>
| 17>
| 18>                          ****END OF INPUT****

CARTESIAN COORDINATES (ANGSTROEM)
---------------------------------
  C    -19.195542  -36.604618  -15.352301
  H    -19.636858  -35.723658  -15.695620
  H    -19.665913  -37.564778  -15.258428
  H    -18.150159  -36.591365  -15.077954

 Total Charge           Charge          ....    0
 Multiplicity           Mult            ....    2
 Number of Electrons    NEL             ....    9
 Basis Dimension        Dim             ....   73

ORBITAL ENERGIES
----------------
                 SPIN UP ORBITALS
  NO   OCC          E(Eh)            E(eV)
   0   1.0000     -10.179834      -277.0074
   1   1.0000      -0.691609       -18.8196
   2   1.0000      -0.438676       -11.9370
   3   1.0000      -0.413157       -11.2426
   4   1.0000      -0.234708        -6.3867
   5   0.0000       0.001448         0.0394
   6   0.0000       0.035541         0.9671
   7   0.0000       0.038019         1.0345
   8   0.0000       0.047565         1.2943
   9   0.0000       0.089744         2.4421

                 SPIN DOWN ORBITALS
  NO   OCC          E(Eh)            E(eV)
   0   1.0000     -10.165487      -276.6170
   1   1.0000      -0.652304       -17.7501
   2   1.0000      -0.429115       -11.6768
   3   1.0000      -0.403500       -10.9798
   4   0.0000      -0.077490        -2.1086
   5   0.0000       0.004451         0.1211
   6   0.0000       0.035149         0.9565
   7   0.0000       0.037585         1.0227
   8   0.0000       0.060780         1.6539

MULLIKEN ATOMIC CHARGES AND SPIN POPULATIONS
--------------------------------------------
   0 C :   -0.427939    1.100580
   1 H :    0.148650   -0.031528
   2 H :    0.143447   -0.034141
   3 H :    0.135841   -0.034911
Sum of atomic charges         :   -0.0000000

LOEWDIN ATOMIC CHARGES AND SPIN POPULATIONS
-------------------------------------------
   0 C :   -0.136737    0.900963
   1 H :    0.034792    0.036655
   2 H :    0.049839    0.031648
   3 H :    0.052106    0.030735

  Mayer bond orders larger than 0.100000
B(  0-C ,  1-H ) :   0.9791 B(  0-C ,  2-H ) :   0.9794 B(  0-C ,  3-H ) :   0.9804

FINAL SINGLE POINT ENERGY       -39.827051745842

DIPOLE MOMENT
-------------
                                X             Y             Z
Electronic contribution:     -0.09021       0.04596      -0.02306
Nuclear contribution   :      0.10020      -0.04943       0.01866
                        -----------------------------------------
Total Dipole Moment    :      0.00999      -0.00347      -0.00440
                        -----------------------------------------
Magnitude (a.u.)       :      0.01146
Magnitude (Debye)      :      0.02912

Rotational constants in cm-1:    10.369847     9.317617     4.908325
Rotational constants in MHz : 310880.192757 279335.139148 147147.873436

                             ****ORCA TERMINATED NORMALLY****
TOTAL RUN TIME: 0 days 0 hours 0 minutes 18 seconds 347 msec
