                         Program Version 5.0.3 -  RELEASE  -
|  1> !B3LYP EPR-III Autoaux
|  2> !PAL4
|  3>
|  4> * xyz 0 2
|  5>  C    -68.2756315613    -92.0823128090    -27.6012326610
|  6>  H    -69.2700697560    -92.5011331560    -27.6570510884
|  7>  H    -67.3475940450    -92.7550272155    -27.6685759908
|  8>  H    -68.0112829262    -91.0443999803    -27.5256693965
|  9> *
| 10>
| 11> %EPRNMR
| 12>         GTENSOR   TRUE
| 13>         NUCLEI    = ALL H {AISO, ADIP, AORB}
| 14>         NUCLEI    = ALL C {AISO, ADIP, AORB}
| 15> END
| 16>
| 17>
| 18>                          ****END OF INPUT****

CARTESIAN COORDINATES (ANGSTROEM)
---------------------------------
  C    -68.275632  -92.082313  -27.601233
  H    -69.270070  -92.501133  -27.657051
  H    -67.347594  -92.755027  -27.668576
  H    -68.011283  -91.044400  -27.525669

 Total Charge           Charge          ....    0
 Multiplicity           Mult            ....    2
 Number of Electrons    NEL             ....    9
 Basis Dimension        Dim             ....   73

ORBITAL ENERGIES
----------------
                 SPIN UP ORBITALS
  NO   OCC          E(Eh)            E(eV)
   0   1.0000     -10.190468      -277.2967
   1   1.0000      -0.682725       -18.5779
   2   1.0000      -0.435579       -11.8527
   3   1.0000      -0.401124       -10.9151
   4   1.0000      -0.235043        -6.3958
   5   0.0000       0.000195         0.0053
   6   0.0000       0.035027         0.9531
   7   0.0000       0.038223         1.0401
   8   0.0000       0.047366         1.2889
   9   0.0000       0.084109         2.2887

                 SPIN DOWN ORBITALS
  NO   OCC          E(Eh)            E(eV)
   0   1.0000     -10.175907      -276.9005
   1   1.0000      -0.643027       -17.4977
   2   1.0000      -0.426284       -11.5998
   3   1.0000      -0.391909       -10.6644
   4   0.0000      -0.077275        -2.1028
   5   0.0000       0.003540         0.0963
   6   0.0000       0.034703         0.9443
   7   0.0000       0.037882         1.0308
   8   0.0000       0.060670         1.6509

MULLIKEN ATOMIC CHARGES AND SPIN POPULATIONS
--------------------------------------------
   0 C :   -0.428037    1.107452
   1 H :    0.150558   -0.033548
   2 H :    0.132180   -0.039426
   3 H :    0.145299   -0.034479
Sum of atomic charges         :    0.0000000

LOEWDIN ATOMIC CHARGES AND SPIN POPULATIONS
-------------------------------------------
   0 C :   -0.166313    0.916381
   1 H :    0.048082    0.030874
   2 H :    0.074910    0.020546
   3 H :    0.043320    0.032198

  Mayer bond orders larger than 0.100000
B(  0-C ,  1-H ) :   0.9736 B(  0-C ,  2-H ) :   0.9763 B(  0-C ,  3-H ) :   0.9748

FINAL SINGLE POINT ENERGY       -39.824709646342

DIPOLE MOMENT
-------------
                                X             Y             Z
Electronic contribution:     -0.14479       0.04863       0.02411
Nuclear contribution   :      0.14836      -0.04019      -0.03567
                        -----------------------------------------
Total Dipole Moment    :      0.00357       0.00844      -0.01156
                        -----------------------------------------
Magnitude (a.u.)       :      0.01475
Magnitude (Debye)      :      0.03750

Rotational constants in cm-1:     9.854113     8.624928     4.600610
Rotational constants in MHz : 295418.870056 258568.832511 137922.822472

                             ****ORCA TERMINATED NORMALLY****
TOTAL RUN TIME: 0 days 0 hours 0 minutes 22 seconds 937 msec
