                         Program Version 5.0.3 -  RELEASE  -
|  1> !B3LYP EPR-III Autoaux
|  2> !PAL4
|  3>
|  4> * xyz 0 2
|  5>  C    -85.1271787226   -112.7039177498    -31.6059884843
|  6>  H    -84.4959682541   -113.5393641836    -31.6482165049
|  7>  H    -84.7954816061   -111.7338802322    -31.4987652369
|  8>  H    -86.1822889051   -112.8149401617    -31.6517185735
|  9> *
| 10>
| 11> %EPRNMR
| 12>         GTENSOR   TRUE
| 13>         NUCLEI    = ALL H {AISO, ADIP, AORB}
| 14>         NUCLEI    = ALL C {AISO, ADIP, AORB}
| 15> END
| 16>
| 17>
| 18>                          ****END OF INPUT****

CARTESIAN COORDINATES (ANGSTROEM)
---------------------------------
  C    -85.127179  -112.703918  -31.605988
  H    -84.495968  -113.539364  -31.648217
  H    -84.795482  -111.733880  -31.498765
  H    -86.182289  -112.814940  -31.651719

 Total Charge           Charge          ....    0
 Multiplicity           Mult            ....    2
 Number of Electrons    NEL             ....    9
 Basis Dimension        Dim             ....   73

ORBITAL ENERGIES
----------------
                 SPIN UP ORBITALS
  NO   OCC          E(Eh)            E(eV)
   0   1.0000     -10.173815      -276.8436
   1   1.0000      -0.696805       -18.9610
   2   1.0000      -0.438934       -11.9440
   3   1.0000      -0.421403       -11.4670
   4   1.0000      -0.234588        -6.3835
   5   0.0000       0.001940         0.0528
   6   0.0000       0.036004         0.9797
   7   0.0000       0.037703         1.0259
   8   0.0000       0.047662         1.2970
   9   0.0000       0.094324         2.5667

                 SPIN DOWN ORBITALS
  NO   OCC          E(Eh)            E(eV)
   0   1.0000     -10.159576      -276.4561
   1   1.0000      -0.657699       -17.8969
   2   1.0000      -0.429181       -11.6786
   3   1.0000      -0.411538       -11.1985
   4   0.0000      -0.077602        -2.1117
   5   0.0000       0.004803         0.1307
   6   0.0000       0.035576         0.9681
   7   0.0000       0.037238         1.0133
   8   0.0000       0.060832         1.6553

MULLIKEN ATOMIC CHARGES AND SPIN POPULATIONS
--------------------------------------------
   0 C :   -0.428279    1.096932
   1 H :    0.146070   -0.031794
   2 H :    0.144016   -0.031540
   3 H :    0.138193   -0.033597
Sum of atomic charges         :    0.0000000

LOEWDIN ATOMIC CHARGES AND SPIN POPULATIONS
-------------------------------------------
   0 C :   -0.119115    0.892339
   1 H :    0.040959    0.035516
   2 H :    0.031049    0.038684
   3 H :    0.047106    0.033461

  Mayer bond orders larger than 0.100000
B(  0-C ,  1-H ) :   0.9815 B(  0-C ,  2-H ) :   0.9819 B(  0-C ,  3-H ) :   0.9824

FINAL SINGLE POINT ENERGY       -39.825855777006

DIPOLE MOMENT
-------------
                                X             Y             Z
Electronic contribution:      0.06406      -0.01234      -0.00804
Nuclear contribution   :     -0.06910       0.01766       0.01444
                        -----------------------------------------
Total Dipole Moment    :     -0.00504       0.00533       0.00640
                        -----------------------------------------
Magnitude (a.u.)       :      0.00974
Magnitude (Debye)      :      0.02475

Rotational constants in cm-1:    10.729907     9.671383     5.086948
Rotational constants in MHz : 321674.507418 289940.779720 152502.858908

                             ****ORCA TERMINATED NORMALLY****
TOTAL RUN TIME: 0 days 0 hours 0 minutes 22 seconds 89 msec
