                         Program Version 5.0.3 -  RELEASE  -
|  1> !B3LYP EPR-III Autoaux
|  2> !PAL4
|  3>
|  4> * xyz 0 2
|  5>  C      8.3016843807     -5.4411468099     -8.2350194464
|  6>  H      9.2064789897     -6.0912335667     -7.8666528047
|  7>  H      8.3354161606     -4.8754215031     -9.1265806896
|  8>  H      7.3309825556     -5.6512400019     -7.7511230824
|  9> *
| 10>
| 11> %EPRNMR
| 12>         GTENSOR   TRUE
| 13>         NUCLEI    = ALL H {AISO, ADIP, AORB}
| 14>         NUCLEI    = ALL C {AISO, ADIP, AORB}
| 15> END
| 16>
| 17>
| 18>                          ****END OF INPUT****

CARTESIAN COORDINATES (ANGSTROEM)
---------------------------------
  C      8.301684   -5.441147   -8.235019
  H      9.206479   -6.091234   -7.866653
  H      8.335416   -4.875422   -9.126581
  H      7.330983   -5.651240   -7.751123

 Total Charge           Charge          ....    0
 Multiplicity           Mult            ....    2
 Number of Electrons    NEL             ....    9
 Basis Dimension        Dim             ....   73

ORBITAL ENERGIES
----------------
                 SPIN UP ORBITALS
  NO   OCC          E(Eh)            E(eV)
   0   1.0000     -10.193662      -277.3836
   1   1.0000      -0.680774       -18.5248
   2   1.0000      -0.427434       -11.6311
   3   1.0000      -0.403788       -10.9876
   4   1.0000      -0.236821        -6.4442
   5   0.0000      -0.000390        -0.0106
   6   0.0000       0.035865         0.9759
   7   0.0000       0.037581         1.0226
   8   0.0000       0.047258         1.2859
   9   0.0000       0.080309         2.1853

                 SPIN DOWN ORBITALS
  NO   OCC          E(Eh)            E(eV)
   0   1.0000     -10.178996      -276.9846
   1   1.0000      -0.641273       -17.4499
   2   1.0000      -0.417872       -11.3709
   3   1.0000      -0.394770       -10.7422
   4   0.0000      -0.078127        -2.1260
   5   0.0000       0.003023         0.0823
   6   0.0000       0.035575         0.9681
   7   0.0000       0.037322         1.0156
   8   0.0000       0.060506         1.6464

MULLIKEN ATOMIC CHARGES AND SPIN POPULATIONS
--------------------------------------------
   0 C :   -0.423855    1.105121
   1 H :    0.136136   -0.039158
   2 H :    0.148255   -0.031086
   3 H :    0.139464   -0.034876
Sum of atomic charges         :    0.0000000

LOEWDIN ATOMIC CHARGES AND SPIN POPULATIONS
-------------------------------------------
   0 C :   -0.173011    0.920041
   1 H :    0.084224    0.016991
   2 H :    0.032962    0.035443
   3 H :    0.055825    0.027524

  Mayer bond orders larger than 0.100000
B(  0-C ,  1-H ) :   0.9732 B(  0-C ,  2-H ) :   0.9730 B(  0-C ,  3-H ) :   0.9739

FINAL SINGLE POINT ENERGY       -39.822753966691

DIPOLE MOMENT
-------------
                                X             Y             Z
Electronic contribution:     -0.00189       0.17089      -0.01418
Nuclear contribution   :     -0.02411      -0.22069      -0.02945
                        -----------------------------------------
Total Dipole Moment    :     -0.02600      -0.04979      -0.04363
                        -----------------------------------------
Magnitude (a.u.)       :      0.07113
Magnitude (Debye)      :      0.18079

Rotational constants in cm-1:     9.465695     8.539150     4.532316
Rotational constants in MHz : 283774.386308 255997.286529 135875.410083

                             ****ORCA TERMINATED NORMALLY****
TOTAL RUN TIME: 0 days 0 hours 0 minutes 22 seconds 500 msec
