                         Program Version 5.0.3 -  RELEASE  -
|  1> !B3LYP EPR-III Autoaux
|  2> !PAL4
|  3>
|  4> * xyz 0 2
|  5>  C     -1.9490026164    -17.1127644538    -10.8856184952
|  6>  H     -2.2359272048    -17.8621930400    -11.7271193953
|  7>  H     -0.9657307111    -16.8029768675    -11.0357051566
|  8>  H     -2.4520770090    -16.7475226602     -9.9753845600
|  9> *
| 10>
| 11> %EPRNMR
| 12>         GTENSOR   TRUE
| 13>         NUCLEI    = ALL H {AISO, ADIP, AORB}
| 14>         NUCLEI    = ALL C {AISO, ADIP, AORB}
| 15> END
| 16>
| 17>
| 18>                          ****END OF INPUT****

CARTESIAN COORDINATES (ANGSTROEM)
---------------------------------
  C     -1.949003  -17.112764  -10.885618
  H     -2.235927  -17.862193  -11.727119
  H     -0.965731  -16.802977  -11.035705
  H     -2.452077  -16.747523   -9.975385

 Total Charge           Charge          ....    0
 Multiplicity           Mult            ....    2
 Number of Electrons    NEL             ....    9
 Basis Dimension        Dim             ....   73

ORBITAL ENERGIES
----------------
                 SPIN UP ORBITALS
  NO   OCC          E(Eh)            E(eV)
   0   1.0000     -10.190362      -277.2938
   1   1.0000      -0.684331       -18.6216
   2   1.0000      -0.432525       -11.7696
   3   1.0000      -0.400578       -10.9003
   4   1.0000      -0.235077        -6.3968
   5   0.0000      -0.000571        -0.0155
   6   0.0000       0.034140         0.9290
   7   0.0000       0.038879         1.0580
   8   0.0000       0.047350         1.2884
   9   0.0000       0.072472         1.9721

                 SPIN DOWN ORBITALS
  NO   OCC          E(Eh)            E(eV)
   0   1.0000     -10.175773      -276.8969
   1   1.0000      -0.644912       -17.5489
   2   1.0000      -0.423681       -11.5289
   3   1.0000      -0.390612       -10.6291
   4   0.0000      -0.077245        -2.1019
   5   0.0000       0.002909         0.0792
   6   0.0000       0.033900         0.9225
   7   0.0000       0.038512         1.0480
   8   0.0000       0.060654         1.6505

MULLIKEN ATOMIC CHARGES AND SPIN POPULATIONS
--------------------------------------------
   0 C :   -0.433970    1.109760
   1 H :    0.143659   -0.041166
   2 H :    0.138025   -0.033324
   3 H :    0.152287   -0.035269
Sum of atomic charges         :    0.0000000

LOEWDIN ATOMIC CHARGES AND SPIN POPULATIONS
-------------------------------------------
   0 C :   -0.169027    0.917086
   1 H :    0.084791    0.017672
   2 H :    0.024116    0.038123
   3 H :    0.060120    0.027119

  Mayer bond orders larger than 0.100000
B(  0-C ,  1-H ) :   0.9740 B(  0-C ,  2-H ) :   0.9756 B(  0-C ,  3-H ) :   0.9733

FINAL SINGLE POINT ENERGY       -39.818504460628

DIPOLE MOMENT
-------------
                                X             Y             Z
Electronic contribution:     -0.09771       0.05320       0.06919
Nuclear contribution   :      0.14485      -0.05576      -0.06097
                        -----------------------------------------
Total Dipole Moment    :      0.04714      -0.00256       0.00822
                        -----------------------------------------
Magnitude (a.u.)       :      0.04792
Magnitude (Debye)      :      0.12180

Rotational constants in cm-1:    11.426499     7.645989     4.585230
Rotational constants in MHz : 342557.831452 229220.979141 137461.748151

                             ****ORCA TERMINATED NORMALLY****
TOTAL RUN TIME: 0 days 0 hours 0 minutes 21 seconds 477 msec
