                         Program Version 5.0.3 -  RELEASE  -
|  1> !B3LYP EPR-III Autoaux
|  2> !PAL4
|  3>
|  4> * xyz 0 2
|  5>  C    -65.7147363261    -89.0191577961    -27.0184385753
|  6>  H    -65.3887956086    -87.9672517422    -26.9383004050
|  7>  H    -66.7505686560    -89.2569697593    -27.0759933412
|  8>  H    -64.8822223509    -89.7589040772    -27.0659900410
|  9> *
| 10>
| 11> %EPRNMR
| 12>         GTENSOR   TRUE
| 13>         NUCLEI    = ALL H {AISO, ADIP, AORB}
| 14>         NUCLEI    = ALL C {AISO, ADIP, AORB}
| 15> END
| 16>
| 17>
| 18>                          ****END OF INPUT****

CARTESIAN COORDINATES (ANGSTROEM)
---------------------------------
  C    -65.714736  -89.019158  -27.018439
  H    -65.388796  -87.967252  -26.938300
  H    -66.750569  -89.256970  -27.075993
  H    -64.882222  -89.758904  -27.065990

 Total Charge           Charge          ....    0
 Multiplicity           Mult            ....    2
 Number of Electrons    NEL             ....    9
 Basis Dimension        Dim             ....   73

ORBITAL ENERGIES
----------------
                 SPIN UP ORBITALS
  NO   OCC          E(Eh)            E(eV)
   0   1.0000     -10.188490      -277.2429
   1   1.0000      -0.683912       -18.6102
   2   1.0000      -0.431328       -11.7370
   3   1.0000      -0.408185       -11.1073
   4   1.0000      -0.234820        -6.3898
   5   0.0000       0.000521         0.0142
   6   0.0000       0.035566         0.9678
   7   0.0000       0.037826         1.0293
   8   0.0000       0.047419         1.2903
   9   0.0000       0.085950         2.3388

                 SPIN DOWN ORBITALS
  NO   OCC          E(Eh)            E(eV)
   0   1.0000     -10.173976      -276.8480
   1   1.0000      -0.644287       -17.5320
   2   1.0000      -0.422009       -11.4834
   3   1.0000      -0.398882       -10.8541
   4   0.0000      -0.077212        -2.1010
   5   0.0000       0.003791         0.1032
   6   0.0000       0.035223         0.9585
   7   0.0000       0.037457         1.0193
   8   0.0000       0.060717         1.6522

MULLIKEN ATOMIC CHARGES AND SPIN POPULATIONS
--------------------------------------------
   0 C :   -0.427248    1.105833
   1 H :    0.137321   -0.036295
   2 H :    0.148800   -0.032716
   3 H :    0.141127   -0.036822
Sum of atomic charges         :    0.0000000

LOEWDIN ATOMIC CHARGES AND SPIN POPULATIONS
-------------------------------------------
   0 C :   -0.161748    0.913651
   1 H :    0.057808    0.027315
   2 H :    0.040321    0.033617
   3 H :    0.063618    0.025418

  Mayer bond orders larger than 0.100000
B(  0-C ,  1-H ) :   0.9764 B(  0-C ,  2-H ) :   0.9749 B(  0-C ,  3-H ) :   0.9754

FINAL SINGLE POINT ENERGY       -39.826917918926

DIPOLE MOMENT
-------------
                                X             Y             Z
Electronic contribution:     -0.08939      -0.04915       0.00975
Nuclear contribution   :      0.09190       0.05572      -0.01871
                        -----------------------------------------
Total Dipole Moment    :      0.00251       0.00657      -0.00897
                        -----------------------------------------
Magnitude (a.u.)       :      0.01140
Magnitude (Debye)      :      0.02897

Rotational constants in cm-1:     9.739860     8.912831     4.654799
Rotational constants in MHz : 291993.648096 267199.951493 139547.352012

                             ****ORCA TERMINATED NORMALLY****
TOTAL RUN TIME: 0 days 0 hours 0 minutes 19 seconds 491 msec
