                         Program Version 5.0.3 -  RELEASE  -
|  1> !B3LYP EPR-III Autoaux
|  2> !PAL4
|  3>
|  4> * xyz 0 2
|  5>  C    -31.1274400431    -50.0942191748    -18.4081707234
|  6>  H    -31.5912727825    -49.0978199114    -18.5121074747
|  7>  H    -31.9281973062    -50.8789250050    -18.3266236125
|  8>  H    -30.0607990656    -50.3116876012    -18.4203862519
|  9> *
| 10>
| 11> %EPRNMR
| 12>         GTENSOR   TRUE
| 13>         NUCLEI    = ALL H {AISO, ADIP, AORB}
| 14>         NUCLEI    = ALL C {AISO, ADIP, AORB}
| 15> END
| 16>
| 17>
| 18>                          ****END OF INPUT****

CARTESIAN COORDINATES (ANGSTROEM)
---------------------------------
  C    -31.127440  -50.094219  -18.408171
  H    -31.591273  -49.097820  -18.512107
  H    -31.928197  -50.878925  -18.326624
  H    -30.060799  -50.311688  -18.420386

 Total Charge           Charge          ....    0
 Multiplicity           Mult            ....    2
 Number of Electrons    NEL             ....    9
 Basis Dimension        Dim             ....   73

ORBITAL ENERGIES
----------------
                 SPIN UP ORBITALS
  NO   OCC          E(Eh)            E(eV)
   0   1.0000     -10.191936      -277.3367
   1   1.0000      -0.681129       -18.5345
   2   1.0000      -0.433798       -11.8042
   3   1.0000      -0.400395       -10.8953
   4   1.0000      -0.234960        -6.3936
   5   0.0000       0.000029         0.0008
   6   0.0000       0.034811         0.9473
   7   0.0000       0.038416         1.0453
   8   0.0000       0.047350         1.2885
   9   0.0000       0.084510         2.2996

                 SPIN DOWN ORBITALS
  NO   OCC          E(Eh)            E(eV)
   0   1.0000     -10.177350      -276.9398
   1   1.0000      -0.641406       -17.4535
   2   1.0000      -0.424725       -11.5574
   3   1.0000      -0.391046       -10.6409
   4   0.0000      -0.077180        -2.1002
   5   0.0000       0.003427         0.0932
   6   0.0000       0.034511         0.9391
   7   0.0000       0.038054         1.0355
   8   0.0000       0.060674         1.6510

MULLIKEN ATOMIC CHARGES AND SPIN POPULATIONS
--------------------------------------------
   0 C :   -0.429201    1.108615
   1 H :    0.140709   -0.036762
   2 H :    0.136529   -0.038056
   3 H :    0.151963   -0.033797
Sum of atomic charges         :    0.0000000

LOEWDIN ATOMIC CHARGES AND SPIN POPULATIONS
-------------------------------------------
   0 C :   -0.172650    0.918826
   1 H :    0.056419    0.027366
   2 H :    0.064741    0.024256
   3 H :    0.051490    0.029552

  Mayer bond orders larger than 0.100000
B(  0-C ,  1-H ) :   0.9746 B(  0-C ,  2-H ) :   0.9752 B(  0-C ,  3-H ) :   0.9723

FINAL SINGLE POINT ENERGY       -39.825068311833

DIPOLE MOMENT
-------------
                                X             Y             Z
Electronic contribution:      0.13858       0.00631       0.01509
Nuclear contribution   :     -0.14836      -0.00433      -0.02594
                        -----------------------------------------
Total Dipole Moment    :     -0.00977       0.00198      -0.01085
                        -----------------------------------------
Magnitude (a.u.)       :      0.01474
Magnitude (Debye)      :      0.03746

Rotational constants in cm-1:    10.068964     8.343965     4.563829
Rotational constants in MHz : 301859.955455 250145.791770 136820.139569

                             ****ORCA TERMINATED NORMALLY****
TOTAL RUN TIME: 0 days 0 hours 0 minutes 25 seconds 832 msec
