                         Program Version 5.0.3 -  RELEASE  -
|  1> !B3LYP EPR-III Autoaux
|  2> !PAL4
|  3>
|  4> * xyz 0 2
|  5>  C    -36.6455948424    -56.2650656152    -19.7874689189
|  6>  H    -35.8770995786    -55.4907872717    -19.8340705992
|  7>  H    -37.6235178762    -56.0032450472    -19.6117717779
|  8>  H    -36.2921376150    -57.2571668725    -20.0163030086
|  9> *
| 10>
| 11> %EPRNMR
| 12>         GTENSOR   TRUE
| 13>         NUCLEI    = ALL H {AISO, ADIP, AORB}
| 14>         NUCLEI    = ALL C {AISO, ADIP, AORB}
| 15> END
| 16>
| 17>
| 18>                          ****END OF INPUT****

CARTESIAN COORDINATES (ANGSTROEM)
---------------------------------
  C    -36.645595  -56.265066  -19.787469
  H    -35.877100  -55.490787  -19.834071
  H    -37.623518  -56.003245  -19.611772
  H    -36.292138  -57.257167  -20.016303

 Total Charge           Charge          ....    0
 Multiplicity           Mult            ....    2
 Number of Electrons    NEL             ....    9
 Basis Dimension        Dim             ....   73

ORBITAL ENERGIES
----------------
                 SPIN UP ORBITALS
  NO   OCC          E(Eh)            E(eV)
   0   1.0000     -10.179792      -277.0062
   1   1.0000      -0.691897       -18.8275
   2   1.0000      -0.439856       -11.9691
   3   1.0000      -0.412141       -11.2149
   4   1.0000      -0.234933        -6.3929
   5   0.0000       0.001431         0.0389
   6   0.0000       0.035572         0.9680
   7   0.0000       0.038004         1.0341
   8   0.0000       0.047557         1.2941
   9   0.0000       0.089881         2.4458

                 SPIN DOWN ORBITALS
  NO   OCC          E(Eh)            E(eV)
   0   1.0000     -10.165438      -276.6156
   1   1.0000      -0.652604       -17.7583
   2   1.0000      -0.430171       -11.7056
   3   1.0000      -0.402596       -10.9552
   4   0.0000      -0.077608        -2.1118
   5   0.0000       0.004429         0.1205
   6   0.0000       0.035178         0.9572
   7   0.0000       0.037581         1.0226
   8   0.0000       0.060764         1.6535

MULLIKEN ATOMIC CHARGES AND SPIN POPULATIONS
--------------------------------------------
   0 C :   -0.427449    1.100165
   1 H :    0.135551   -0.035465
   2 H :    0.149752   -0.030367
   3 H :    0.142146   -0.034333
Sum of atomic charges         :    0.0000000

LOEWDIN ATOMIC CHARGES AND SPIN POPULATIONS
-------------------------------------------
   0 C :   -0.135428    0.900689
   1 H :    0.057542    0.028887
   2 H :    0.025952    0.039479
   3 H :    0.051933    0.030946

  Mayer bond orders larger than 0.100000
B(  0-C ,  1-H ) :   0.9803 B(  0-C ,  2-H ) :   0.9792 B(  0-C ,  3-H ) :   0.9795

FINAL SINGLE POINT ENERGY       -39.826189396625

DIPOLE MOMENT
-------------
                                X             Y             Z
Electronic contribution:     -0.10696      -0.02781       0.05185
Nuclear contribution   :      0.10795       0.03298      -0.07475
                        -----------------------------------------
Total Dipole Moment    :      0.00099       0.00517      -0.02290
                        -----------------------------------------
Magnitude (a.u.)       :      0.02350
Magnitude (Debye)      :      0.05972

Rotational constants in cm-1:    10.141733     9.501850     4.910540
Rotational constants in MHz : 304041.502700 284858.290028 147214.287516

                             ****ORCA TERMINATED NORMALLY****
TOTAL RUN TIME: 0 days 0 hours 0 minutes 29 seconds 896 msec
