                         Program Version 5.0.3 -  RELEASE  -
|  1> !B3LYP EPR-III Autoaux
|  2> !PAL4
|  3>
|  4> * xyz 0 2
|  5>  C    -17.0785827642    -34.2489396256    -14.8116164707
|  6>  H    -16.1324206439    -34.9060476324    -14.6145709146
|  7>  H    -17.0808538476    -33.2382154027    -14.4415700284
|  8>  H    -17.9299133567    -34.5286065075    -15.3888973863
|  9> *
| 10>
| 11> %EPRNMR
| 12>         GTENSOR   TRUE
| 13>         NUCLEI    = ALL H {AISO, ADIP, AORB}
| 14>         NUCLEI    = ALL C {AISO, ADIP, AORB}
| 15> END
| 16>
| 17>
| 18>                          ****END OF INPUT****

CARTESIAN COORDINATES (ANGSTROEM)
---------------------------------
  C    -17.078583  -34.248940  -14.811616
  H    -16.132421  -34.906048  -14.614571
  H    -17.080854  -33.238215  -14.441570
  H    -17.929913  -34.528607  -15.388897

 Total Charge           Charge          ....    0
 Multiplicity           Mult            ....    2
 Number of Electrons    NEL             ....    9
 Basis Dimension        Dim             ....   73

ORBITAL ENERGIES
----------------
                 SPIN UP ORBITALS
  NO   OCC          E(Eh)            E(eV)
   0   1.0000     -10.190889      -277.3082
   1   1.0000      -0.682723       -18.5778
   2   1.0000      -0.424337       -11.5468
   3   1.0000      -0.410445       -11.1688
   4   1.0000      -0.234971        -6.3939
   5   0.0000      -0.000131        -0.0036
   6   0.0000       0.035660         0.9704
   7   0.0000       0.037551         1.0218
   8   0.0000       0.047364         1.2888
   9   0.0000       0.078762         2.1432

                 SPIN DOWN ORBITALS
  NO   OCC          E(Eh)            E(eV)
   0   1.0000     -10.176309      -276.9114
   1   1.0000      -0.643104       -17.4998
   2   1.0000      -0.415033       -11.2936
   3   1.0000      -0.401163       -10.9162
   4   0.0000      -0.077152        -2.0994
   5   0.0000       0.003297         0.0897
   6   0.0000       0.035412         0.9636
   7   0.0000       0.037195         1.0121
   8   0.0000       0.060681         1.6512

MULLIKEN ATOMIC CHARGES AND SPIN POPULATIONS
--------------------------------------------
   0 C :   -0.427883    1.107888
   1 H :    0.141999   -0.040074
   2 H :    0.139334   -0.034491
   3 H :    0.146550   -0.033323
Sum of atomic charges         :   -0.0000000

LOEWDIN ATOMIC CHARGES AND SPIN POPULATIONS
-------------------------------------------
   0 C :   -0.167816    0.917323
   1 H :    0.085269    0.017005
   2 H :    0.043137    0.032070
   3 H :    0.039411    0.033602

  Mayer bond orders larger than 0.100000
B(  0-C ,  1-H ) :   0.9725 B(  0-C ,  2-H ) :   0.9753 B(  0-C ,  3-H ) :   0.9745

FINAL SINGLE POINT ENERGY       -39.823247843686

DIPOLE MOMENT
-------------
                                X             Y             Z
Electronic contribution:     -0.06890      -0.03347      -0.00754
Nuclear contribution   :      0.06937       0.05542      -0.00764
                        -----------------------------------------
Total Dipole Moment    :      0.00048       0.02195      -0.01518
                        -----------------------------------------
Magnitude (a.u.)       :      0.02669
Magnitude (Debye)      :      0.06785

Rotational constants in cm-1:    10.258584     8.235050     4.571597
Rotational constants in MHz : 307544.624675 246880.588022 137053.026526

                             ****ORCA TERMINATED NORMALLY****
TOTAL RUN TIME: 0 days 0 hours 0 minutes 21 seconds 903 msec
