                         Program Version 5.0.3 -  RELEASE  -
|  1> !B3LYP EPR-III Autoaux
|  2> !PAL4
|  3>
|  4> * xyz 0 2
|  5>  C    -63.1063780213    -85.9780741093    -26.4168059387
|  6>  H    -62.4595699465    -86.8533682766    -26.5177112163
|  7>  H    -62.7885636485    -84.9674409570    -26.3013709051
|  8>  H    -64.2010991567    -86.0103550018    -26.4559494781
|  9> *
| 10>
| 11> %EPRNMR
| 12>         GTENSOR   TRUE
| 13>         NUCLEI    = ALL H {AISO, ADIP, AORB}
| 14>         NUCLEI    = ALL C {AISO, ADIP, AORB}
| 15> END
| 16>
| 17>
| 18>                          ****END OF INPUT****

CARTESIAN COORDINATES (ANGSTROEM)
---------------------------------
  C    -63.106378  -85.978074  -26.416806
  H    -62.459570  -86.853368  -26.517711
  H    -62.788564  -84.967441  -26.301371
  H    -64.201099  -86.010355  -26.455949

 Total Charge           Charge          ....    0
 Multiplicity           Mult            ....    2
 Number of Electrons    NEL             ....    9
 Basis Dimension        Dim             ....   73

ORBITAL ENERGIES
----------------
                 SPIN UP ORBITALS
  NO   OCC          E(Eh)            E(eV)
   0   1.0000     -10.185626      -277.1650
   1   1.0000      -0.686906       -18.6917
   2   1.0000      -0.436273       -11.8716
   3   1.0000      -0.406245       -11.0545
   4   1.0000      -0.234788        -6.3889
   5   0.0000       0.000764         0.0208
   6   0.0000       0.034975         0.9517
   7   0.0000       0.038396         1.0448
   8   0.0000       0.047464         1.2916
   9   0.0000       0.086783         2.3615

                 SPIN DOWN ORBITALS
  NO   OCC          E(Eh)            E(eV)
   0   1.0000     -10.171167      -276.7715
   1   1.0000      -0.647493       -17.6192
   2   1.0000      -0.427054       -11.6207
   3   1.0000      -0.396547       -10.7906
   4   0.0000      -0.077322        -2.1040
   5   0.0000       0.003949         0.1075
   6   0.0000       0.034649         0.9429
   7   0.0000       0.037976         1.0334
   8   0.0000       0.060734         1.6527

MULLIKEN ATOMIC CHARGES AND SPIN POPULATIONS
--------------------------------------------
   0 C :   -0.429492    1.104904
   1 H :    0.150603   -0.034120
   2 H :    0.141924   -0.034443
   3 H :    0.136965   -0.036341
Sum of atomic charges         :   -0.0000000

LOEWDIN ATOMIC CHARGES AND SPIN POPULATIONS
-------------------------------------------
   0 C :   -0.155073    0.909667
   1 H :    0.057313    0.028433
   2 H :    0.041715    0.033407
   3 H :    0.056045    0.028492

  Mayer bond orders larger than 0.100000
B(  0-C ,  1-H ) :   0.9751 B(  0-C ,  2-H ) :   0.9777 B(  0-C ,  3-H ) :   0.9782

FINAL SINGLE POINT ENERGY       -39.825881446477

DIPOLE MOMENT
-------------
                                X             Y             Z
Electronic contribution:      0.09111      -0.06388       0.01026
Nuclear contribution   :     -0.09751       0.07724      -0.01845
                        -----------------------------------------
Total Dipole Moment    :     -0.00640       0.01336      -0.00818
                        -----------------------------------------
Magnitude (a.u.)       :      0.01692
Magnitude (Debye)      :      0.04302

Rotational constants in cm-1:    10.762515     8.463927     4.738720
Rotational constants in MHz : 322652.073414 253742.140764 142063.250794

                             ****ORCA TERMINATED NORMALLY****
TOTAL RUN TIME: 0 days 0 hours 0 minutes 36 seconds 184 msec
