                         Program Version 5.0.3 -  RELEASE  -
|  1> !B3LYP EPR-III Autoaux
|  2> !PAL4
|  3>
|  4> * xyz 0 2
|  5>  C    -13.2181374222    -29.9419775991    -13.8258905784
|  6>  H    -12.4862778755    -29.6666420288    -14.4446450731
|  7>  H    -13.8609415876    -29.1239430498    -13.4208783603
|  8>  H    -13.4807064002    -30.9487060357    -13.4562624594
|  9> *
| 10>
| 11> %EPRNMR
| 12>         GTENSOR   TRUE
| 13>         NUCLEI    = ALL H {AISO, ADIP, AORB}
| 14>         NUCLEI    = ALL C {AISO, ADIP, AORB}
| 15> END
| 16>
| 17>
| 18>                          ****END OF INPUT****

CARTESIAN COORDINATES (ANGSTROEM)
---------------------------------
  C    -13.218137  -29.941978  -13.825891
  H    -12.486278  -29.666642  -14.444645
  H    -13.860942  -29.123943  -13.420878
  H    -13.480706  -30.948706  -13.456262

 Total Charge           Charge          ....    0
 Multiplicity           Mult            ....    2
 Number of Electrons    NEL             ....    9
 Basis Dimension        Dim             ....   73

ORBITAL ENERGIES
----------------
                 SPIN UP ORBITALS
  NO   OCC          E(Eh)            E(eV)
   0   1.0000     -10.181867      -277.0627
   1   1.0000      -0.691503       -18.8167
   2   1.0000      -0.444634       -12.0991
   3   1.0000      -0.404277       -11.0009
   4   1.0000      -0.235083        -6.3969
   5   0.0000       0.001098         0.0299
   6   0.0000       0.034915         0.9501
   7   0.0000       0.038414         1.0453
   8   0.0000       0.047490         1.2923
   9   0.0000       0.085901         2.3375

                 SPIN DOWN ORBITALS
  NO   OCC          E(Eh)            E(eV)
   0   1.0000     -10.167460      -276.6706
   1   1.0000      -0.652128       -17.7453
   2   1.0000      -0.434864       -11.8333
   3   1.0000      -0.394899       -10.7458
   4   0.0000      -0.077612        -2.1119
   5   0.0000       0.004172         0.1135
   6   0.0000       0.034564         0.9405
   7   0.0000       0.038016         1.0345
   8   0.0000       0.060703         1.6518

MULLIKEN ATOMIC CHARGES AND SPIN POPULATIONS
--------------------------------------------
   0 C :   -0.429779    1.102409
   1 H :    0.154260   -0.028926
   2 H :    0.130842   -0.037306
   3 H :    0.144676   -0.036177
Sum of atomic charges         :    0.0000000

LOEWDIN ATOMIC CHARGES AND SPIN POPULATIONS
-------------------------------------------
   0 C :   -0.138024    0.903173
   1 H :    0.006890    0.045141
   2 H :    0.066883    0.025178
   3 H :    0.064250    0.026509

  Mayer bond orders larger than 0.100000
B(  0-C ,  1-H ) :   0.9785 B(  0-C ,  2-H ) :   0.9803 B(  0-C ,  3-H ) :   0.9779

FINAL SINGLE POINT ENERGY       -39.821085532524

DIPOLE MOMENT
-------------
                                X             Y             Z
Electronic contribution:      0.13115      -0.05882      -0.11021
Nuclear contribution   :     -0.13005       0.06494       0.11683
                        -----------------------------------------
Total Dipole Moment    :      0.00110       0.00611       0.00662
                        -----------------------------------------
Magnitude (a.u.)       :      0.00908
Magnitude (Debye)      :      0.02308

Rotational constants in cm-1:    10.289938     9.136273     4.839806
Rotational constants in MHz : 308484.573895 273898.575123 145093.734992

                             ****ORCA TERMINATED NORMALLY****
TOTAL RUN TIME: 0 days 0 hours 0 minutes 21 seconds 827 msec
