                         Program Version 5.0.3 -  RELEASE  -
|  1> !B3LYP EPR-III Autoaux
|  2> !PAL4
|  3>
|  4> * xyz 0 2
|  5>  C    -15.8332932253    -32.8390380562    -14.4886608583
|  6>  H    -16.2415952382    -33.6477730413    -14.0363201232
|  7>  H    -14.8177243270    -33.1434197162    -14.9099482950
|  8>  H    -16.1759268879    -31.7573969026    -14.4590011898
|  9> *
| 10>
| 11> %EPRNMR
| 12>         GTENSOR   TRUE
| 13>         NUCLEI    = ALL H {AISO, ADIP, AORB}
| 14>         NUCLEI    = ALL C {AISO, ADIP, AORB}
| 15> END
| 16>
| 17>
| 18>                          ****END OF INPUT****

CARTESIAN COORDINATES (ANGSTROEM)
---------------------------------
  C    -15.833293  -32.839038  -14.488661
  H    -16.241595  -33.647773  -14.036320
  H    -14.817724  -33.143420  -14.909948
  H    -16.175927  -31.757397  -14.459001

 Total Charge           Charge          ....    0
 Multiplicity           Mult            ....    2
 Number of Electrons    NEL             ....    9
 Basis Dimension        Dim             ....   73

ORBITAL ENERGIES
----------------
                 SPIN UP ORBITALS
  NO   OCC          E(Eh)            E(eV)
   0   1.0000     -10.188822      -277.2519
   1   1.0000      -0.686525       -18.6813
   2   1.0000      -0.436539       -11.8788
   3   1.0000      -0.399919       -10.8823
   4   1.0000      -0.235910        -6.4194
   5   0.0000      -0.000019        -0.0005
   6   0.0000       0.034695         0.9441
   7   0.0000       0.038515         1.0481
   8   0.0000       0.047346         1.2883
   9   0.0000       0.081351         2.2137

                 SPIN DOWN ORBITALS
  NO   OCC          E(Eh)            E(eV)
   0   1.0000     -10.174254      -276.8555
   1   1.0000      -0.647227       -17.6119
   2   1.0000      -0.427015       -11.6197
   3   1.0000      -0.390464       -10.6251
   4   0.0000      -0.077794        -2.1169
   5   0.0000       0.003303         0.0899
   6   0.0000       0.034459         0.9377
   7   0.0000       0.038148         1.0381
   8   0.0000       0.060592         1.6488

MULLIKEN ATOMIC CHARGES AND SPIN POPULATIONS
--------------------------------------------
   0 C :   -0.430214    1.106182
   1 H :    0.149839   -0.030949
   2 H :    0.129912   -0.038820
   3 H :    0.150464   -0.036413
Sum of atomic charges         :    0.0000000

LOEWDIN ATOMIC CHARGES AND SPIN POPULATIONS
-------------------------------------------
   0 C :   -0.159468    0.913495
   1 H :    0.010691    0.042861
   2 H :    0.073488    0.021716
   3 H :    0.075288    0.021927

  Mayer bond orders larger than 0.100000
B(  0-C ,  1-H ) :   0.9756 B(  0-C ,  2-H ) :   0.9782 B(  0-C ,  3-H ) :   0.9725

FINAL SINGLE POINT ENERGY       -39.818042246415

DIPOLE MOMENT
-------------
                                X             Y             Z
Electronic contribution:     -0.17970       0.01694       0.00105
Nuclear contribution   :      0.19834      -0.02359       0.04550
                        -----------------------------------------
Total Dipole Moment    :      0.01864      -0.00665       0.04656
                        -----------------------------------------
Magnitude (a.u.)       :      0.05059
Magnitude (Debye)      :      0.12858

Rotational constants in cm-1:    10.929587     8.010733     4.642446
Rotational constants in MHz : 327660.778004 240155.743921 139177.028957

                             ****ORCA TERMINATED NORMALLY****
TOTAL RUN TIME: 0 days 0 hours 0 minutes 37 seconds 910 msec
