                         Program Version 5.0.3 -  RELEASE  -
|  1> !B3LYP EPR-III Autoaux
|  2> !PAL4
|  3>
|  4> * xyz 0 2
|  5>  C    -77.8070588201   -103.6738641632    -29.8367181270
|  6>  H    -77.1244863720   -104.5050223554    -29.9077461143
|  7>  H    -77.3022651268   -102.6687706782    -29.7305199762
|  8>  H    -78.8033083060   -103.9762593446    -29.9091375413
|  9> *
| 10>
| 11> %EPRNMR
| 12>         GTENSOR   TRUE
| 13>         NUCLEI    = ALL H {AISO, ADIP, AORB}
| 14>         NUCLEI    = ALL C {AISO, ADIP, AORB}
| 15> END
| 16>
| 17>
| 18>                          ****END OF INPUT****

CARTESIAN COORDINATES (ANGSTROEM)
---------------------------------
  C    -77.807059  -103.673864  -29.836718
  H    -77.124486  -104.505022  -29.907746
  H    -77.302265  -102.668771  -29.730520
  H    -78.803308  -103.976259  -29.909138

 Total Charge           Charge          ....    0
 Multiplicity           Mult            ....    2
 Number of Electrons    NEL             ....    9
 Basis Dimension        Dim             ....   73

ORBITAL ENERGIES
----------------
                 SPIN UP ORBITALS
  NO   OCC          E(Eh)            E(eV)
   0   1.0000     -10.185168      -277.1525
   1   1.0000      -0.688261       -18.7285
   2   1.0000      -0.438667       -11.9367
   3   1.0000      -0.403494       -10.9796
   4   1.0000      -0.234892        -6.3917
   5   0.0000       0.000620         0.0169
   6   0.0000       0.034427         0.9368
   7   0.0000       0.038743         1.0543
   8   0.0000       0.047454         1.2913
   9   0.0000       0.079448         2.1619

                 SPIN DOWN ORBITALS
  NO   OCC          E(Eh)            E(eV)
   0   1.0000     -10.170703      -276.7589
   1   1.0000      -0.648928       -17.6582
   2   1.0000      -0.429471       -11.6865
   3   1.0000      -0.393649       -10.7117
   4   0.0000      -0.077390        -2.1059
   5   0.0000       0.003820         0.1039
   6   0.0000       0.034134         0.9288
   7   0.0000       0.038324         1.0428
   8   0.0000       0.060712         1.6521

MULLIKEN ATOMIC CHARGES AND SPIN POPULATIONS
--------------------------------------------
   0 C :   -0.431774    1.105604
   1 H :    0.131885   -0.035219
   2 H :    0.148528   -0.037938
   3 H :    0.151361   -0.032447
Sum of atomic charges         :   -0.0000000

LOEWDIN ATOMIC CHARGES AND SPIN POPULATIONS
-------------------------------------------
   0 C :   -0.153466    0.909007
   1 H :    0.046529    0.031728
   2 H :    0.074589    0.022408
   3 H :    0.032348    0.036856

  Mayer bond orders larger than 0.100000
B(  0-C ,  1-H ) :   0.9792 B(  0-C ,  2-H ) :   0.9752 B(  0-C ,  3-H ) :   0.9776

FINAL SINGLE POINT ENERGY       -39.822538985318

DIPOLE MOMENT
-------------
                                X             Y             Z
Electronic contribution:     -0.12906       0.07569       0.01760
Nuclear contribution   :      0.14324      -0.09628      -0.02792
                        -----------------------------------------
Total Dipole Moment    :      0.01418      -0.02058      -0.01032
                        -----------------------------------------
Magnitude (a.u.)       :      0.02704
Magnitude (Debye)      :      0.06874

Rotational constants in cm-1:    11.093706     8.294040     4.746524
Rotational constants in MHz : 332580.930051 248649.069805 142297.217554

                             ****ORCA TERMINATED NORMALLY****
TOTAL RUN TIME: 0 days 0 hours 0 minutes 19 seconds 402 msec
