                         Program Version 5.0.3 -  RELEASE  -
|  1> !B3LYP EPR-III Autoaux
|  2> !PAL4
|  3>
|  4> * xyz 0 2
|  5>  C    -32.8993802294    -52.0940604216    -18.8617164148
|  6>  H    -33.9681577301    -52.4783587532    -18.8676959252
|  7>  H    -32.0089551201    -52.5728750525    -19.0273507374
|  8>  H    -32.8527341213    -51.0483861004    -18.5714618918
|  9> *
| 10>
| 11> %EPRNMR
| 12>         GTENSOR   TRUE
| 13>         NUCLEI    = ALL H {AISO, ADIP, AORB}
| 14>         NUCLEI    = ALL C {AISO, ADIP, AORB}
| 15> END
| 16>
| 17>
| 18>                          ****END OF INPUT****

CARTESIAN COORDINATES (ANGSTROEM)
---------------------------------
  C    -32.899380  -52.094060  -18.861716
  H    -33.968158  -52.478359  -18.867696
  H    -32.008955  -52.572875  -19.027351
  H    -32.852734  -51.048386  -18.571462

 Total Charge           Charge          ....    0
 Multiplicity           Mult            ....    2
 Number of Electrons    NEL             ....    9
 Basis Dimension        Dim             ....   73

ORBITAL ENERGIES
----------------
                 SPIN UP ORBITALS
  NO   OCC          E(Eh)            E(eV)
   0   1.0000     -10.185050      -277.1493
   1   1.0000      -0.688803       -18.7433
   2   1.0000      -0.441672       -12.0185
   3   1.0000      -0.402443       -10.9510
   4   1.0000      -0.235174        -6.3994
   5   0.0000       0.000666         0.0181
   6   0.0000       0.034517         0.9393
   7   0.0000       0.038627         1.0511
   8   0.0000       0.047340         1.2882
   9   0.0000       0.081097         2.2068

                 SPIN DOWN ORBITALS
  NO   OCC          E(Eh)            E(eV)
   0   1.0000     -10.170630      -276.7569
   1   1.0000      -0.649463       -17.6728
   2   1.0000      -0.432237       -11.7618
   3   1.0000      -0.392927       -10.6921
   4   0.0000      -0.077660        -2.1132
   5   0.0000       0.003835         0.1043
   6   0.0000       0.034183         0.9302
   7   0.0000       0.038205         1.0396
   8   0.0000       0.060574         1.6483

MULLIKEN ATOMIC CHARGES AND SPIN POPULATIONS
--------------------------------------------
   0 C :   -0.431052    1.103902
   1 H :    0.143759   -0.038441
   2 H :    0.153738   -0.030122
   3 H :    0.133556   -0.035339
Sum of atomic charges         :   -0.0000000

LOEWDIN ATOMIC CHARGES AND SPIN POPULATIONS
-------------------------------------------
   0 C :   -0.149457    0.907710
   1 H :    0.076389    0.021736
   2 H :    0.021790    0.040273
   3 H :    0.051278    0.030281

  Mayer bond orders larger than 0.100000
B(  0-C ,  1-H ) :   0.9764 B(  0-C ,  2-H ) :   0.9774 B(  0-C ,  3-H ) :   0.9790

FINAL SINGLE POINT ENERGY       -39.822170222898

DIPOLE MOMENT
-------------
                                X             Y             Z
Electronic contribution:      0.10134      -0.12184      -0.06767
Nuclear contribution   :     -0.09871       0.13683       0.08892
                        -----------------------------------------
Total Dipole Moment    :      0.00263       0.01499       0.02125
                        -----------------------------------------
Magnitude (a.u.)       :      0.02613
Magnitude (Debye)      :      0.06643

Rotational constants in cm-1:    10.651971     8.593978     4.759023
Rotational constants in MHz : 319338.047835 257640.964571 142671.929330

                             ****ORCA TERMINATED NORMALLY****
TOTAL RUN TIME: 0 days 0 hours 0 minutes 25 seconds 647 msec
