                         Program Version 5.0.3 -  RELEASE  -
|  1> !B3LYP EPR-III Autoaux
|  2> !PAL4
|  3>
|  4> * xyz 0 2
|  5>  C    -20.0056037321    -37.5237038993    -15.5690425337
|  6>  H    -21.0583476489    -37.5317034827    -15.7875286722
|  7>  H    -19.6266596877    -38.5479560441    -15.8324676460
|  8>  H    -19.4475811236    -36.7387188075    -15.0066076011
|  9> *
| 10>
| 11> %EPRNMR
| 12>         GTENSOR   TRUE
| 13>         NUCLEI    = ALL H {AISO, ADIP, AORB}
| 14>         NUCLEI    = ALL C {AISO, ADIP, AORB}
| 15> END
| 16>
| 17>
| 18>                          ****END OF INPUT****

CARTESIAN COORDINATES (ANGSTROEM)
---------------------------------
  C    -20.005604  -37.523704  -15.569043
  H    -21.058348  -37.531703  -15.787529
  H    -19.626660  -38.547956  -15.832468
  H    -19.447581  -36.738719  -15.006608

 Total Charge           Charge          ....    0
 Multiplicity           Mult            ....    2
 Number of Electrons    NEL             ....    9
 Basis Dimension        Dim             ....   73

ORBITAL ENERGIES
----------------
                 SPIN UP ORBITALS
  NO   OCC          E(Eh)            E(eV)
   0   1.0000     -10.191726      -277.3310
   1   1.0000      -0.682436       -18.5700
   2   1.0000      -0.435077       -11.8390
   3   1.0000      -0.397542       -10.8177
   4   1.0000      -0.235970        -6.4211
   5   0.0000      -0.000155        -0.0042
   6   0.0000       0.034441         0.9372
   7   0.0000       0.038844         1.0570
   8   0.0000       0.047316         1.2875
   9   0.0000       0.081564         2.2195

                 SPIN DOWN ORBITALS
  NO   OCC          E(Eh)            E(eV)
   0   1.0000     -10.177119      -276.9335
   1   1.0000      -0.643038       -17.4980
   2   1.0000      -0.426005       -11.5922
   3   1.0000      -0.387885       -10.5549
   4   0.0000      -0.077783        -2.1166
   5   0.0000       0.003218         0.0876
   6   0.0000       0.034190         0.9304
   7   0.0000       0.038463         1.0466
   8   0.0000       0.060588         1.6487

MULLIKEN ATOMIC CHARGES AND SPIN POPULATIONS
--------------------------------------------
   0 C :   -0.429676    1.107028
   1 H :    0.141007   -0.034829
   2 H :    0.135542   -0.037801
   3 H :    0.153126   -0.034398
Sum of atomic charges         :    0.0000000

LOEWDIN ATOMIC CHARGES AND SPIN POPULATIONS
-------------------------------------------
   0 C :   -0.172803    0.918186
   1 H :    0.042657    0.032157
   2 H :    0.065091    0.024409
   3 H :    0.065054    0.025248

  Mayer bond orders larger than 0.100000
B(  0-C ,  1-H ) :   0.9754 B(  0-C ,  2-H ) :   0.9762 B(  0-C ,  3-H ) :   0.9714

FINAL SINGLE POINT ENERGY       -39.822499971152

DIPOLE MOMENT
-------------
                                X             Y             Z
Electronic contribution:      0.05926       0.15746      -0.01935
Nuclear contribution   :     -0.08677      -0.18532       0.06035
                        -----------------------------------------
Total Dipole Moment    :     -0.02751      -0.02787       0.04100
                        -----------------------------------------
Magnitude (a.u.)       :      0.05670
Magnitude (Debye)      :      0.14411

Rotational constants in cm-1:    10.797178     7.896942     4.586128
Rotational constants in MHz : 323691.248739 236744.363524 137488.663255

                             ****ORCA TERMINATED NORMALLY****
TOTAL RUN TIME: 0 days 0 hours 0 minutes 19 seconds 701 msec
