                         Program Version 5.0.3 -  RELEASE  -
|  1> !B3LYP EPR-III Autoaux
|  2> !PAL4
|  3>
|  4> * xyz 0 2
|  5>  C    -10.0918023803    -26.4046178934    -13.0075725647
|  6>  H     -9.9978166239    -25.6338149248    -12.2336700652
|  7>  H    -11.0932015147    -26.5292903998    -13.3109511359
|  8>  H     -9.3488874571    -26.8886176749    -13.5358765308
|  9> *
| 10>
| 11> %EPRNMR
| 12>         GTENSOR   TRUE
| 13>         NUCLEI    = ALL H {AISO, ADIP, AORB}
| 14>         NUCLEI    = ALL C {AISO, ADIP, AORB}
| 15> END
| 16>
| 17>
| 18>                          ****END OF INPUT****

CARTESIAN COORDINATES (ANGSTROEM)
---------------------------------
  C    -10.091802  -26.404618  -13.007573
  H     -9.997817  -25.633815  -12.233670
  H    -11.093202  -26.529290  -13.310951
  H     -9.348887  -26.888618  -13.535877

 Total Charge           Charge          ....    0
 Multiplicity           Mult            ....    2
 Number of Electrons    NEL             ....    9
 Basis Dimension        Dim             ....   73

ORBITAL ENERGIES
----------------
                 SPIN UP ORBITALS
  NO   OCC          E(Eh)            E(eV)
   0   1.0000     -10.178290      -276.9653
   1   1.0000      -0.693780       -18.8787
   2   1.0000      -0.442615       -12.0442
   3   1.0000      -0.410431       -11.1684
   4   1.0000      -0.235387        -6.4052
   5   0.0000       0.001466         0.0399
   6   0.0000       0.035123         0.9557
   7   0.0000       0.038468         1.0468
   8   0.0000       0.047566         1.2943
   9   0.0000       0.086896         2.3646

                 SPIN DOWN ORBITALS
  NO   OCC          E(Eh)            E(eV)
   0   1.0000     -10.163949      -276.5751
   1   1.0000      -0.654687       -17.8149
   2   1.0000      -0.433025       -11.7832
   3   1.0000      -0.400562       -10.8998
   4   0.0000      -0.077919        -2.1203
   5   0.0000       0.004416         0.1202
   6   0.0000       0.034748         0.9455
   7   0.0000       0.038024         1.0347
   8   0.0000       0.060741         1.6528

MULLIKEN ATOMIC CHARGES AND SPIN POPULATIONS
--------------------------------------------
   0 C :   -0.428635    1.099085
   1 H :    0.141612   -0.035586
   2 H :    0.136376   -0.033261
   3 H :    0.150648   -0.030238
Sum of atomic charges         :    0.0000000

LOEWDIN ATOMIC CHARGES AND SPIN POPULATIONS
-------------------------------------------
   0 C :   -0.131930    0.898535
   1 H :    0.062197    0.027786
   2 H :    0.039578    0.035210
   3 H :    0.030155    0.038469

  Mayer bond orders larger than 0.100000
B(  0-C ,  1-H ) :   0.9802 B(  0-C ,  2-H ) :   0.9811 B(  0-C ,  3-H ) :   0.9800

FINAL SINGLE POINT ENERGY       -39.824502923871

DIPOLE MOMENT
-------------
                                X             Y             Z
Electronic contribution:      0.10711      -0.09225       0.01055
Nuclear contribution   :     -0.12329       0.12151      -0.04331
                        -----------------------------------------
Total Dipole Moment    :     -0.01618       0.02926      -0.03276
                        -----------------------------------------
Magnitude (a.u.)       :      0.04681
Magnitude (Debye)      :      0.11898

Rotational constants in cm-1:    10.983215     9.006562     4.965522
Rotational constants in MHz : 329268.505818 270009.926404 148862.591187

                             ****ORCA TERMINATED NORMALLY****
TOTAL RUN TIME: 0 days 0 hours 0 minutes 23 seconds 887 msec
