                         Program Version 5.0.3 -  RELEASE  -
|  1> !B3LYP EPR-III Autoaux
|  2> !PAL4
|  3>
|  4> * xyz 0 2
|  5>  C    -44.5333932271    -65.1158342908    -21.7944789106
|  6>  H    -44.7961998549    -64.0899054141    -21.8143767799
|  7>  H    -45.4597205107    -65.7439317161    -21.8155219132
|  8>  H    -43.5181350572    -65.4296496149    -21.8125432920
|  9> *
| 10>
| 11> %EPRNMR
| 12>         GTENSOR   TRUE
| 13>         NUCLEI    = ALL H {AISO, ADIP, AORB}
| 14>         NUCLEI    = ALL C {AISO, ADIP, AORB}
| 15> END
| 16>
| 17>
| 18>                          ****END OF INPUT****

CARTESIAN COORDINATES (ANGSTROEM)
---------------------------------
  C    -44.533393  -65.115834  -21.794479
  H    -44.796200  -64.089905  -21.814377
  H    -45.459721  -65.743932  -21.815522
  H    -43.518135  -65.429650  -21.812543

 Total Charge           Charge          ....    0
 Multiplicity           Mult            ....    2
 Number of Electrons    NEL             ....    9
 Basis Dimension        Dim             ....   73

ORBITAL ENERGIES
----------------
                 SPIN UP ORBITALS
  NO   OCC          E(Eh)            E(eV)
   0   1.0000     -10.184287      -277.1285
   1   1.0000      -0.688349       -18.7309
   2   1.0000      -0.439162       -11.9502
   3   1.0000      -0.405391       -11.0312
   4   1.0000      -0.234916        -6.3924
   5   0.0000       0.000854         0.0232
   6   0.0000       0.034842         0.9481
   7   0.0000       0.038523         1.0483
   8   0.0000       0.047475         1.2918
   9   0.0000       0.083581         2.2744

                 SPIN DOWN ORBITALS
  NO   OCC          E(Eh)            E(eV)
   0   1.0000     -10.169846      -276.7356
   1   1.0000      -0.648974       -17.6595
   2   1.0000      -0.429836       -11.6964
   3   1.0000      -0.395707       -10.7677
   4   0.0000      -0.077439        -2.1072
   5   0.0000       0.004000         0.1088
   6   0.0000       0.034503         0.9389
   7   0.0000       0.038110         1.0370
   8   0.0000       0.060725         1.6524

MULLIKEN ATOMIC CHARGES AND SPIN POPULATIONS
--------------------------------------------
   0 C :   -0.429611    1.104011
   1 H :    0.138486   -0.034031
   2 H :    0.139606   -0.037819
   3 H :    0.151519   -0.032161
Sum of atomic charges         :    0.0000000

LOEWDIN ATOMIC CHARGES AND SPIN POPULATIONS
-------------------------------------------
   0 C :   -0.150074    0.907542
   1 H :    0.038445    0.034578
   2 H :    0.068510    0.024429
   3 H :    0.043119    0.033451

  Mayer bond orders larger than 0.100000
B(  0-C ,  1-H ) :   0.9785 B(  0-C ,  2-H ) :   0.9780 B(  0-C ,  3-H ) :   0.9766

FINAL SINGLE POINT ENERGY       -39.824907849008

DIPOLE MOMENT
-------------
                                X             Y             Z
Electronic contribution:      0.12319      -0.04359       0.02749
Nuclear contribution   :     -0.13032       0.06297      -0.04422
                        -----------------------------------------
Total Dipole Moment    :     -0.00712       0.01938      -0.01674
                        -----------------------------------------
Magnitude (a.u.)       :      0.02658
Magnitude (Debye)      :      0.06756

Rotational constants in cm-1:    10.818292     8.546208     4.776971
Rotational constants in MHz : 324324.244392 256208.878841 143209.995075

                             ****ORCA TERMINATED NORMALLY****
TOTAL RUN TIME: 0 days 0 hours 0 minutes 21 seconds 559 msec
