                         Program Version 5.0.3 -  RELEASE  -
|  1> !B3LYP EPR-III Autoaux
|  2> !PAL4
|  3>
|  4> * xyz 0 2
|  5>  C    -92.8261305789   -122.3178071647    -33.2161906176
|  6>  H    -92.0830560942   -123.1681182179    -33.2557684476
|  7>  H    -92.5097012707   -121.2504451750    -33.1129442329
|  8>  H    -93.8603026909   -122.5813530961    -33.2971855832
|  9> *
| 10>
| 11> %EPRNMR
| 12>         GTENSOR   TRUE
| 13>         NUCLEI    = ALL H {AISO, ADIP, AORB}
| 14>         NUCLEI    = ALL C {AISO, ADIP, AORB}
| 15> END
| 16>
| 17>
| 18>                          ****END OF INPUT****

CARTESIAN COORDINATES (ANGSTROEM)
---------------------------------
  C    -92.826131  -122.317807  -33.216191
  H    -92.083056  -123.168118  -33.255768
  H    -92.509701  -121.250445  -33.112944
  H    -93.860303  -122.581353  -33.297186

 Total Charge           Charge          ....    0
 Multiplicity           Mult            ....    2
 Number of Electrons    NEL             ....    9
 Basis Dimension        Dim             ....   73

ORBITAL ENERGIES
----------------
                 SPIN UP ORBITALS
  NO   OCC          E(Eh)            E(eV)
   0   1.0000     -10.191827      -277.3337
   1   1.0000      -0.680919       -18.5287
   2   1.0000      -0.421770       -11.4769
   3   1.0000      -0.412681       -11.2296
   4   1.0000      -0.234768        -6.3884
   5   0.0000       0.000007         0.0002
   6   0.0000       0.036162         0.9840
   7   0.0000       0.037184         1.0118
   8   0.0000       0.047368         1.2889
   9   0.0000       0.084155         2.2900

                 SPIN DOWN ORBITALS
  NO   OCC          E(Eh)            E(eV)
   0   1.0000     -10.177244      -276.9369
   1   1.0000      -0.641172       -17.4472
   2   1.0000      -0.412525       -11.2254
   3   1.0000      -0.403522       -10.9804
   4   0.0000      -0.077025        -2.0960
   5   0.0000       0.003423         0.0932
   6   0.0000       0.035851         0.9756
   7   0.0000       0.036840         1.0025
   8   0.0000       0.060704         1.6518

MULLIKEN ATOMIC CHARGES AND SPIN POPULATIONS
--------------------------------------------
   0 C :   -0.426893    1.108056
   1 H :    0.139425   -0.037711
   2 H :    0.144179   -0.036487
   3 H :    0.143289   -0.033857
Sum of atomic charges         :   -0.0000000

LOEWDIN ATOMIC CHARGES AND SPIN POPULATIONS
-------------------------------------------
   0 C :   -0.171575    0.918741
   1 H :    0.067933    0.023246
   2 H :    0.063746    0.024980
   3 H :    0.039896    0.033032

  Mayer bond orders larger than 0.100000
B(  0-C ,  1-H ) :   0.9739 B(  0-C ,  2-H ) :   0.9730 B(  0-C ,  3-H ) :   0.9741

FINAL SINGLE POINT ENERGY       -39.826089635217

DIPOLE MOMENT
-------------
                                X             Y             Z
Electronic contribution:     -0.02824       0.03205       0.00821
Nuclear contribution   :      0.01899      -0.03485      -0.01299
                        -----------------------------------------
Total Dipole Moment    :     -0.00926      -0.00280      -0.00478
                        -----------------------------------------
Magnitude (a.u.)       :      0.01079
Magnitude (Debye)      :      0.02742

Rotational constants in cm-1:     9.692252     8.590900     4.554342
Rotational constants in MHz : 290566.402697 257548.714983 136535.743746

                             ****ORCA TERMINATED NORMALLY****
TOTAL RUN TIME: 0 days 0 hours 0 minutes 27 seconds 310 msec
