                         Program Version 5.0.3 -  RELEASE  -
|  1> !B3LYP EPR-III Autoaux
|  2> !PAL4
|  3>
|  4> * xyz 0 2
|  5>  C    -87.9127840590   -116.1417543639    -32.2245071772
|  6>  H    -87.8020013967   -115.0461822171    -32.1230949817
|  7>  H    -88.9335992832   -116.5760612706    -32.3045811914
|  8>  H    -87.1206187924   -116.8444803863    -32.2435133040
|  9> *
| 10>
| 11> %EPRNMR
| 12>         GTENSOR   TRUE
| 13>         NUCLEI    = ALL H {AISO, ADIP, AORB}
| 14>         NUCLEI    = ALL C {AISO, ADIP, AORB}
| 15> END
| 16>
| 17>
| 18>                          ****END OF INPUT****

CARTESIAN COORDINATES (ANGSTROEM)
---------------------------------
  C    -87.912784  -116.141754  -32.224507
  H    -87.802001  -115.046182  -32.123095
  H    -88.933599  -116.576061  -32.304581
  H    -87.120619  -116.844480  -32.243513

 Total Charge           Charge          ....    0
 Multiplicity           Mult            ....    2
 Number of Electrons    NEL             ....    9
 Basis Dimension        Dim             ....   73

ORBITAL ENERGIES
----------------
                 SPIN UP ORBITALS
  NO   OCC          E(Eh)            E(eV)
   0   1.0000     -10.187832      -277.2250
   1   1.0000      -0.684566       -18.6280
   2   1.0000      -0.430315       -11.7095
   3   1.0000      -0.409927       -11.1547
   4   1.0000      -0.234763        -6.3882
   5   0.0000       0.000569         0.0155
   6   0.0000       0.035681         0.9709
   7   0.0000       0.037724         1.0265
   8   0.0000       0.047433         1.2907
   9   0.0000       0.086739         2.3603

                 SPIN DOWN ORBITALS
  NO   OCC          E(Eh)            E(eV)
   0   1.0000     -10.173331      -276.8304
   1   1.0000      -0.644979       -17.5508
   2   1.0000      -0.420983       -11.4555
   3   1.0000      -0.400579       -10.9003
   4   0.0000      -0.077202        -2.1008
   5   0.0000       0.003826         0.1041
   6   0.0000       0.035340         0.9617
   7   0.0000       0.037347         1.0163
   8   0.0000       0.060727         1.6525

MULLIKEN ATOMIC CHARGES AND SPIN POPULATIONS
--------------------------------------------
   0 C :   -0.427407    1.105588
   1 H :    0.145565   -0.035682
   2 H :    0.135694   -0.036827
   3 H :    0.146148   -0.033079
Sum of atomic charges         :   -0.0000000

LOEWDIN ATOMIC CHARGES AND SPIN POPULATIONS
-------------------------------------------
   0 C :   -0.159965    0.912739
   1 H :    0.060912    0.026656
   2 H :    0.061678    0.026028
   3 H :    0.037376    0.034577

  Mayer bond orders larger than 0.100000
B(  0-C ,  1-H ) :   0.9748 B(  0-C ,  2-H ) :   0.9769 B(  0-C ,  3-H ) :   0.9758

FINAL SINGLE POINT ENERGY       -39.826791703893

DIPOLE MOMENT
-------------
                                X             Y             Z
Electronic contribution:      0.08708       0.02416       0.00075
Nuclear contribution   :     -0.08834      -0.03107       0.00175
                        -----------------------------------------
Total Dipole Moment    :     -0.00126      -0.00691       0.00249
                        -----------------------------------------
Magnitude (a.u.)       :      0.00746
Magnitude (Debye)      :      0.01896

Rotational constants in cm-1:     9.933762     8.815511     4.670732
Rotational constants in MHz : 297806.695874 264282.362805 140025.015355

                             ****ORCA TERMINATED NORMALLY****
TOTAL RUN TIME: 0 days 0 hours 0 minutes 23 seconds 308 msec
