                         Program Version 5.0.3 -  RELEASE  -
|  1> !B3LYP EPR-III Autoaux
|  2> !PAL4
|  3>
|  4> * xyz 0 2
|  5>  C    -91.0813012260   -120.1144271649    -32.8663252357
|  6>  H    -91.7490707011   -120.9216067214    -32.9557653807
|  7>  H    -90.0457836573   -120.1905451114    -32.8165497272
|  8>  H    -91.3459623614   -119.0837239336    -32.7895650246
|  9> *
| 10>
| 11> %EPRNMR
| 12>         GTENSOR   TRUE
| 13>         NUCLEI    = ALL H {AISO, ADIP, AORB}
| 14>         NUCLEI    = ALL C {AISO, ADIP, AORB}
| 15> END
| 16>
| 17>
| 18>                          ****END OF INPUT****

CARTESIAN COORDINATES (ANGSTROEM)
---------------------------------
  C    -91.081301  -120.114427  -32.866325
  H    -91.749071  -120.921607  -32.955765
  H    -90.045784  -120.190545  -32.816550
  H    -91.345962  -119.083724  -32.789565

 Total Charge           Charge          ....    0
 Multiplicity           Mult            ....    2
 Number of Electrons    NEL             ....    9
 Basis Dimension        Dim             ....   73

ORBITAL ENERGIES
----------------
                 SPIN UP ORBITALS
  NO   OCC          E(Eh)            E(eV)
   0   1.0000     -10.175741      -276.8960
   1   1.0000      -0.695890       -18.9361
   2   1.0000      -0.446151       -12.1404
   3   1.0000      -0.410515       -11.1707
   4   1.0000      -0.234734        -6.3874
   5   0.0000       0.001714         0.0467
   6   0.0000       0.034925         0.9504
   7   0.0000       0.038603         1.0505
   8   0.0000       0.047618         1.2958
   9   0.0000       0.090949         2.4748

                 SPIN DOWN ORBITALS
  NO   OCC          E(Eh)            E(eV)
   0   1.0000     -10.161464      -276.5075
   1   1.0000      -0.656818       -17.8729
   2   1.0000      -0.436573       -11.8798
   3   1.0000      -0.400500       -10.8982
   4   0.0000      -0.077655        -2.1131
   5   0.0000       0.004620         0.1257
   6   0.0000       0.034541         0.9399
   7   0.0000       0.038128         1.0375
   8   0.0000       0.060793         1.6543

MULLIKEN ATOMIC CHARGES AND SPIN POPULATIONS
--------------------------------------------
   0 C :   -0.430212    1.099066
   1 H :    0.151313   -0.031239
   2 H :    0.140616   -0.033102
   3 H :    0.138283   -0.034725
Sum of atomic charges         :   -0.0000000

LOEWDIN ATOMIC CHARGES AND SPIN POPULATIONS
-------------------------------------------
   0 C :   -0.125715    0.895166
   1 H :    0.042551    0.034790
   2 H :    0.034339    0.037365
   3 H :    0.048825    0.032679

  Mayer bond orders larger than 0.100000
B(  0-C ,  1-H ) :   0.9802 B(  0-C ,  2-H ) :   0.9820 B(  0-C ,  3-H ) :   0.9823

FINAL SINGLE POINT ENERGY       -39.824170773888

DIPOLE MOMENT
-------------
                                X             Y             Z
Electronic contribution:     -0.06324      -0.10097      -0.02041
Nuclear contribution   :      0.07726       0.11048       0.02780
                        -----------------------------------------
Total Dipole Moment    :      0.01403       0.00951       0.00739
                        -----------------------------------------
Magnitude (a.u.)       :      0.01849
Magnitude (Debye)      :      0.04700

Rotational constants in cm-1:    11.489532     8.959603     5.034366
Rotational constants in MHz : 344447.514547 268602.129697 150926.495954

                             ****ORCA TERMINATED NORMALLY****
TOTAL RUN TIME: 0 days 0 hours 0 minutes 34 seconds 533 msec
