                         Program Version 5.0.3 -  RELEASE  -
|  1> !B3LYP EPR-III Autoaux
|  2> !PAL4
|  3>
|  4> * xyz 0 2
|  5>  C     10.0619907960     -3.4743690910     -7.8043400886
|  6>  H      9.5854831867     -3.7340281936     -8.7963874839
|  7>  H     11.1760535346     -3.4611098427     -7.5061861513
|  8>  H      9.2753943175     -3.2711754290     -7.0474901698
|  9> *
| 10>
| 11> %EPRNMR
| 12>         GTENSOR   TRUE
| 13>         NUCLEI    = ALL H {AISO, ADIP, AORB}
| 14>         NUCLEI    = ALL C {AISO, ADIP, AORB}
| 15> END
| 16>
| 17>
| 18>                          ****END OF INPUT****

CARTESIAN COORDINATES (ANGSTROEM)
---------------------------------
  C     10.061991   -3.474369   -7.804340
  H      9.585483   -3.734028   -8.796387
  H     11.176054   -3.461110   -7.506186
  H      9.275394   -3.271175   -7.047490

 Total Charge           Charge          ....    0
 Multiplicity           Mult            ....    2
 Number of Electrons    NEL             ....    9
 Basis Dimension        Dim             ....   73

ORBITAL ENERGIES
----------------
                 SPIN UP ORBITALS
  NO   OCC          E(Eh)            E(eV)
   0   1.0000     -10.199254      -277.5358
   1   1.0000      -0.674792       -18.3620
   2   1.0000      -0.423274       -11.5179
   3   1.0000      -0.399185       -10.8624
   4   1.0000      -0.235040        -6.3958
   5   0.0000      -0.001441        -0.0392
   6   0.0000       0.034675         0.9436
   7   0.0000       0.038305         1.0423
   8   0.0000       0.047217         1.2848
   9   0.0000       0.074900         2.0381

                 SPIN DOWN ORBITALS
  NO   OCC          E(Eh)            E(eV)
   0   1.0000     -10.184503      -277.1344
   1   1.0000      -0.634845       -17.2750
   2   1.0000      -0.414697       -11.2845
   3   1.0000      -0.389759       -10.6059
   4   0.0000      -0.076874        -2.0919
   5   0.0000       0.002348         0.0639
   6   0.0000       0.034486         0.9384
   7   0.0000       0.037976         1.0334
   8   0.0000       0.060617         1.6495

MULLIKEN ATOMIC CHARGES AND SPIN POPULATIONS
--------------------------------------------
   0 C :   -0.431105    1.114045
   1 H :    0.143773   -0.038417
   2 H :    0.150843   -0.038546
   3 H :    0.136488   -0.037083
Sum of atomic charges         :   -0.0000000

LOEWDIN ATOMIC CHARGES AND SPIN POPULATIONS
-------------------------------------------
   0 C :   -0.195549    0.930221
   1 H :    0.065246    0.023316
   2 H :    0.076785    0.019501
   3 H :    0.053518    0.026963

  Mayer bond orders larger than 0.100000
B(  0-C ,  1-H ) :   0.9703 B(  0-C ,  2-H ) :   0.9671 B(  0-C ,  3-H ) :   0.9719

FINAL SINGLE POINT ENERGY       -39.820643383344

DIPOLE MOMENT
-------------
                                X             Y             Z
Electronic contribution:      0.09582       0.01874      -0.03387
Nuclear contribution   :     -0.11170      -0.03238       0.04718
                        -----------------------------------------
Total Dipole Moment    :     -0.01589      -0.01364       0.01331
                        -----------------------------------------
Magnitude (a.u.)       :      0.02481
Magnitude (Debye)      :      0.06307

Rotational constants in cm-1:    10.073659     7.669008     4.356578
Rotational constants in MHz : 302000.711134 229911.085187 130606.924883

                             ****ORCA TERMINATED NORMALLY****
TOTAL RUN TIME: 0 days 0 hours 0 minutes 23 seconds 860 msec
