                         Program Version 5.0.3 -  RELEASE  -
|  1> !B3LYP EPR-III Autoaux
|  2> !PAL4
|  3>
|  4> * xyz 0 2
|  5>  C    -35.9329528913    -55.4787901158    -19.6128930227
|  6>  H    -34.9074569844    -55.4009270766    -19.6174221016
|  7>  H    -36.7201046993    -54.7265911352    -19.4565637540
|  8>  H    -36.3319065229    -56.4141775578    -19.8481937760
|  9> *
| 10>
| 11> %EPRNMR
| 12>         GTENSOR   TRUE
| 13>         NUCLEI    = ALL H {AISO, ADIP, AORB}
| 14>         NUCLEI    = ALL C {AISO, ADIP, AORB}
| 15> END
| 16>
| 17>
| 18>                          ****END OF INPUT****

CARTESIAN COORDINATES (ANGSTROEM)
---------------------------------
  C    -35.932953  -55.478790  -19.612893
  H    -34.907457  -55.400927  -19.617422
  H    -36.720105  -54.726591  -19.456564
  H    -36.331907  -56.414178  -19.848194

 Total Charge           Charge          ....    0
 Multiplicity           Mult            ....    2
 Number of Electrons    NEL             ....    9
 Basis Dimension        Dim             ....   73

ORBITAL ENERGIES
----------------
                 SPIN UP ORBITALS
  NO   OCC          E(Eh)            E(eV)
   0   1.0000     -10.177116      -276.9334
   1   1.0000      -0.695025       -18.9126
   2   1.0000      -0.444008       -12.0821
   3   1.0000      -0.410332       -11.1657
   4   1.0000      -0.234855        -6.3907
   5   0.0000       0.001508         0.0410
   6   0.0000       0.034848         0.9483
   7   0.0000       0.038606         1.0505
   8   0.0000       0.047589         1.2950
   9   0.0000       0.085229         2.3192

                 SPIN DOWN ORBITALS
  NO   OCC          E(Eh)            E(eV)
   0   1.0000     -10.162805      -276.5440
   1   1.0000      -0.655925       -17.8486
   2   1.0000      -0.434490       -11.8231
   3   1.0000      -0.400322       -10.8933
   4   0.0000      -0.077652        -2.1130
   5   0.0000       0.004459         0.1213
   6   0.0000       0.034478         0.9382
   7   0.0000       0.038149         1.0381
   8   0.0000       0.060772         1.6537

MULLIKEN ATOMIC CHARGES AND SPIN POPULATIONS
--------------------------------------------
   0 C :   -0.430964    1.099950
   1 H :    0.151391   -0.030625
   2 H :    0.143870   -0.036245
   3 H :    0.135703   -0.033079
Sum of atomic charges         :    0.0000000

LOEWDIN ATOMIC CHARGES AND SPIN POPULATIONS
-------------------------------------------
   0 C :   -0.129091    0.897089
   1 H :    0.029077    0.038995
   2 H :    0.065171    0.026963
   3 H :    0.034843    0.036953

  Mayer bond orders larger than 0.100000
B(  0-C ,  1-H ) :   0.9808 B(  0-C ,  2-H ) :   0.9803 B(  0-C ,  3-H ) :   0.9816

FINAL SINGLE POINT ENERGY       -39.822974744027

DIPOLE MOMENT
-------------
                                X             Y             Z
Electronic contribution:      0.11038       0.05969       0.04080
Nuclear contribution   :     -0.12037      -0.07894      -0.06258
                        -----------------------------------------
Total Dipole Moment    :     -0.00999      -0.01925      -0.02178
                        -----------------------------------------
Magnitude (a.u.)       :      0.03074
Magnitude (Debye)      :      0.07813

Rotational constants in cm-1:    11.394019     8.861589     4.987394
Rotational constants in MHz : 341584.102552 265663.741335 149518.323108

                             ****ORCA TERMINATED NORMALLY****
TOTAL RUN TIME: 0 days 0 hours 0 minutes 32 seconds 700 msec
