                         Program Version 5.0.3 -  RELEASE  -
|  1> !B3LYP EPR-III Autoaux
|  2> !PAL4
|  3>
|  4> * xyz 0 2
|  5>  C    -37.3045714178    -56.9923306053    -19.9569624613
|  6>  H    -37.0328143694    -55.9084364268    -20.0108637690
|  7>  H    -38.1757173215    -57.4375424308    -19.8377146882
|  8>  H    -36.4674738228    -57.6655742224    -20.0591746108
|  9> *
| 10>
| 11> %EPRNMR
| 12>         GTENSOR   TRUE
| 13>         NUCLEI    = ALL H {AISO, ADIP, AORB}
| 14>         NUCLEI    = ALL C {AISO, ADIP, AORB}
| 15> END
| 16>
| 17>
| 18>                          ****END OF INPUT****

CARTESIAN COORDINATES (ANGSTROEM)
---------------------------------
  C    -37.304571  -56.992331  -19.956962
  H    -37.032814  -55.908436  -20.010864
  H    -38.175717  -57.437542  -19.837715
  H    -36.467474  -57.665574  -20.059175

 Total Charge           Charge          ....    0
 Multiplicity           Mult            ....    2
 Number of Electrons    NEL             ....    9
 Basis Dimension        Dim             ....   73

ORBITAL ENERGIES
----------------
                 SPIN UP ORBITALS
  NO   OCC          E(Eh)            E(eV)
   0   1.0000     -10.178505      -276.9712
   1   1.0000      -0.695364       -18.9218
   2   1.0000      -0.446105       -12.1391
   3   1.0000      -0.407204       -11.0806
   4   1.0000      -0.235080        -6.3968
   5   0.0000       0.001274         0.0347
   6   0.0000       0.034726         0.9449
   7   0.0000       0.038516         1.0481
   8   0.0000       0.047432         1.2907
   9   0.0000       0.084403         2.2967

                 SPIN DOWN ORBITALS
  NO   OCC          E(Eh)            E(eV)
   0   1.0000     -10.164200      -276.5820
   1   1.0000      -0.656256       -17.8576
   2   1.0000      -0.436313       -11.8727
   3   1.0000      -0.397562       -10.8182
   4   0.0000      -0.077831        -2.1179
   5   0.0000       0.004266         0.1161
   6   0.0000       0.034364         0.9351
   7   0.0000       0.038052         1.0355
   8   0.0000       0.060610         1.6493

MULLIKEN ATOMIC CHARGES AND SPIN POPULATIONS
--------------------------------------------
   0 C :   -0.432572    1.100339
   1 H :    0.145181   -0.036947
   2 H :    0.155060   -0.028495
   3 H :    0.132332   -0.034897
Sum of atomic charges         :   -0.0000000

LOEWDIN ATOMIC CHARGES AND SPIN POPULATIONS
-------------------------------------------
   0 C :   -0.128240    0.897835
   1 H :    0.073424    0.023978
   2 H :    0.002361    0.047060
   3 H :    0.052455    0.031127

  Mayer bond orders larger than 0.100000
B(  0-C ,  1-H ) :   0.9787 B(  0-C ,  2-H ) :   0.9804 B(  0-C ,  3-H ) :   0.9818

FINAL SINGLE POINT ENERGY       -39.818680885044

DIPOLE MOMENT
-------------
                                X             Y             Z
Electronic contribution:     -0.16710       0.01352       0.02461
Nuclear contribution   :      0.17816      -0.02590      -0.02763
                        -----------------------------------------
Total Dipole Moment    :      0.01106      -0.01239      -0.00302
                        -----------------------------------------
Magnitude (a.u.)       :      0.01688
Magnitude (Debye)      :      0.04290

Rotational constants in cm-1:    11.086580     8.919760     4.942943
Rotational constants in MHz : 332367.297631 267407.666463 148185.692255

                             ****ORCA TERMINATED NORMALLY****
TOTAL RUN TIME: 0 days 0 hours 0 minutes 29 seconds 452 msec
