                         Program Version 5.0.3 -  RELEASE  -
|  1> !B3LYP EPR-III Autoaux
|  2> !PAL4
|  3>
|  4> * xyz 0 2
|  5>  C      7.1360022083     -6.7671339076     -8.5443537512
|  6>  H      6.6577307912     -6.9945284685     -7.5761540799
|  7>  H      7.7362391038     -7.4818373435     -8.9594502528
|  8>  H      7.0735775761     -5.8043100467     -8.9742499230
|  9> *
| 10>
| 11> %EPRNMR
| 12>         GTENSOR   TRUE
| 13>         NUCLEI    = ALL H {AISO, ADIP, AORB}
| 14>         NUCLEI    = ALL C {AISO, ADIP, AORB}
| 15> END
| 16>
| 17>
| 18>                          ****END OF INPUT****

CARTESIAN COORDINATES (ANGSTROEM)
---------------------------------
  C      7.136002   -6.767134   -8.544354
  H      6.657731   -6.994528   -7.576154
  H      7.736239   -7.481837   -8.959450
  H      7.073578   -5.804310   -8.974250

 Total Charge           Charge          ....    0
 Multiplicity           Mult            ....    2
 Number of Electrons    NEL             ....    9
 Basis Dimension        Dim             ....   73

ORBITAL ENERGIES
----------------
                 SPIN UP ORBITALS
  NO   OCC          E(Eh)            E(eV)
   0   1.0000     -10.177993      -276.9573
   1   1.0000      -0.693589       -18.8735
   2   1.0000      -0.433484       -11.7957
   3   1.0000      -0.420621       -11.4457
   4   1.0000      -0.235037        -6.3957
   5   0.0000       0.001534         0.0417
   6   0.0000       0.036481         0.9927
   7   0.0000       0.037220         1.0128
   8   0.0000       0.047587         1.2949
   9   0.0000       0.090020         2.4496

                 SPIN DOWN ORBITALS
  NO   OCC          E(Eh)            E(eV)
   0   1.0000     -10.163665      -276.5674
   1   1.0000      -0.654418       -17.8076
   2   1.0000      -0.423566       -11.5258
   3   1.0000      -0.411136       -11.1876
   4   0.0000      -0.077679        -2.1138
   5   0.0000       0.004492         0.1222
   6   0.0000       0.036060         0.9812
   7   0.0000       0.036814         1.0017
   8   0.0000       0.060778         1.6539

MULLIKEN ATOMIC CHARGES AND SPIN POPULATIONS
--------------------------------------------
   0 C :   -0.427163    1.098631
   1 H :    0.138066   -0.035645
   2 H :    0.145190   -0.030635
   3 H :    0.143907   -0.032350
Sum of atomic charges         :   -0.0000000

LOEWDIN ATOMIC CHARGES AND SPIN POPULATIONS
-------------------------------------------
   0 C :   -0.129858    0.898109
   1 H :    0.064646    0.026782
   2 H :    0.022835    0.040642
   3 H :    0.042377    0.034467

  Mayer bond orders larger than 0.100000
B(  0-C ,  1-H ) :   0.9801 B(  0-C ,  2-H ) :   0.9801 B(  0-C ,  3-H ) :   0.9800

FINAL SINGLE POINT ENERGY       -39.825651477324

DIPOLE MOMENT
-------------
                                X             Y             Z
Electronic contribution:     -0.01226      -0.00923      -0.08083
Nuclear contribution   :      0.04462       0.01553       0.09234
                        -----------------------------------------
Total Dipole Moment    :      0.03236       0.00630       0.01151
                        -----------------------------------------
Magnitude (a.u.)       :      0.03492
Magnitude (Debye)      :      0.08877

Rotational constants in cm-1:    10.448492     9.402035     4.959530
Rotational constants in MHz : 313237.901543 281865.932645 148682.983258

                             ****ORCA TERMINATED NORMALLY****
TOTAL RUN TIME: 0 days 0 hours 0 minutes 33 seconds 37 msec
