                         Program Version 5.0.3 -  RELEASE  -
|  1> !B3LYP EPR-III Autoaux
|  2> !PAL4
|  3>
|  4> * xyz 0 2
|  5>  C      4.4746020652     -9.8177989744     -9.2313651644
|  6>  H      4.8871006724     -9.6887239386    -10.2245712291
|  7>  H      4.2378675000     -8.9055822385     -8.5888917612
|  8>  H      4.0359853947    -10.7764272289     -8.9867211264
|  9> *
| 10>
| 11> %EPRNMR
| 12>         GTENSOR   TRUE
| 13>         NUCLEI    = ALL H {AISO, ADIP, AORB}
| 14>         NUCLEI    = ALL C {AISO, ADIP, AORB}
| 15> END
| 16>
| 17>
| 18>                          ****END OF INPUT****

CARTESIAN COORDINATES (ANGSTROEM)
---------------------------------
  C      4.474602   -9.817799   -9.231365
  H      4.887101   -9.688724  -10.224571
  H      4.237868   -8.905582   -8.588892
  H      4.035985  -10.776427   -8.986721

 Total Charge           Charge          ....    0
 Multiplicity           Mult            ....    2
 Number of Electrons    NEL             ....    9
 Basis Dimension        Dim             ....   73

ORBITAL ENERGIES
----------------
                 SPIN UP ORBITALS
  NO   OCC          E(Eh)            E(eV)
   0   1.0000     -10.190977      -277.3106
   1   1.0000      -0.682488       -18.5714
   2   1.0000      -0.420190       -11.4339
   3   1.0000      -0.414510       -11.2794
   4   1.0000      -0.237108        -6.4520
   5   0.0000       0.000122         0.0033
   6   0.0000       0.036804         1.0015
   7   0.0000       0.036947         1.0054
   8   0.0000       0.047320         1.2876
   9   0.0000       0.084688         2.3045

                 SPIN DOWN ORBITALS
  NO   OCC          E(Eh)            E(eV)
   0   1.0000     -10.176367      -276.9130
   1   1.0000      -0.643212       -17.5027
   2   1.0000      -0.410551       -11.1717
   3   1.0000      -0.405329       -11.0296
   4   0.0000      -0.078407        -2.1336
   5   0.0000       0.003381         0.0920
   6   0.0000       0.036521         0.9938
   7   0.0000       0.036596         0.9958
   8   0.0000       0.060535         1.6472

MULLIKEN ATOMIC CHARGES AND SPIN POPULATIONS
--------------------------------------------
   0 C :   -0.422511    1.102053
   1 H :    0.141759   -0.032907
   2 H :    0.139084   -0.036267
   3 H :    0.141669   -0.032879
Sum of atomic charges         :    0.0000000

LOEWDIN ATOMIC CHARGES AND SPIN POPULATIONS
-------------------------------------------
   0 C :   -0.167643    0.916159
   1 H :    0.047430    0.030903
   2 H :    0.073290    0.021875
   3 H :    0.046922    0.031063

  Mayer bond orders larger than 0.100000
B(  0-C ,  1-H ) :   0.9749 B(  0-C ,  2-H ) :   0.9742 B(  0-C ,  3-H ) :   0.9749

FINAL SINGLE POINT ENERGY       -39.826216845798

DIPOLE MOMENT
-------------
                                X             Y             Z
Electronic contribution:      0.12785      -0.05417       0.03926
Nuclear contribution   :     -0.19700       0.06195      -0.07951
                        -----------------------------------------
Total Dipole Moment    :     -0.06915       0.00778      -0.04026
                        -----------------------------------------
Magnitude (a.u.)       :      0.08039
Magnitude (Debye)      :      0.20434

Rotational constants in cm-1:     9.596564     8.711422     4.624038
Rotational constants in MHz : 287697.755387 261161.873306 138625.174010

                             ****ORCA TERMINATED NORMALLY****
TOTAL RUN TIME: 0 days 0 hours 0 minutes 28 seconds 388 msec
