                         Program Version 5.0.3 -  RELEASE  -
|  1> !B3LYP EPR-III Autoaux
|  2> !PAL4
|  3>
|  4> * xyz 0 2
|  5>  C    -48.8919184202    -69.9760755755    -22.8869926519
|  6>  H    -48.1061663384    -70.6694545900    -22.9364178819
|  7>  H    -48.8859432311    -68.9310661506    -22.7611447498
|  8>  H    -49.8756491815    -70.3431143340    -22.9608665481
|  9> *
| 10>
| 11> %EPRNMR
| 12>         GTENSOR   TRUE
| 13>         NUCLEI    = ALL H {AISO, ADIP, AORB}
| 14>         NUCLEI    = ALL C {AISO, ADIP, AORB}
| 15> END
| 16>
| 17>
| 18>                          ****END OF INPUT****

CARTESIAN COORDINATES (ANGSTROEM)
---------------------------------
  C    -48.891918  -69.976076  -22.886993
  H    -48.106166  -70.669455  -22.936418
  H    -48.885943  -68.931066  -22.761145
  H    -49.875649  -70.343114  -22.960867

 Total Charge           Charge          ....    0
 Multiplicity           Mult            ....    2
 Number of Electrons    NEL             ....    9
 Basis Dimension        Dim             ....   73

ORBITAL ENERGIES
----------------
                 SPIN UP ORBITALS
  NO   OCC          E(Eh)            E(eV)
   0   1.0000     -10.175370      -276.8859
   1   1.0000      -0.696082       -18.9413
   2   1.0000      -0.445451       -12.1213
   3   1.0000      -0.411789       -11.2053
   4   1.0000      -0.234707        -6.3867
   5   0.0000       0.001747         0.0475
   6   0.0000       0.034947         0.9509
   7   0.0000       0.038576         1.0497
   8   0.0000       0.047627         1.2960
   9   0.0000       0.088487         2.4079

                 SPIN DOWN ORBITALS
  NO   OCC          E(Eh)            E(eV)
   0   1.0000     -10.161100      -276.4976
   1   1.0000      -0.657006       -17.8780
   2   1.0000      -0.435924       -11.8621
   3   1.0000      -0.401716       -10.9312
   4   0.0000      -0.077656        -2.1131
   5   0.0000       0.004644         0.1264
   6   0.0000       0.034553         0.9402
   7   0.0000       0.038101         1.0368
   8   0.0000       0.060800         1.6545

MULLIKEN ATOMIC CHARGES AND SPIN POPULATIONS
--------------------------------------------
   0 C :   -0.430299    1.098827
   1 H :    0.150048   -0.031840
   2 H :    0.145793   -0.033370
   3 H :    0.134458   -0.033616
Sum of atomic charges         :    0.0000000

LOEWDIN ATOMIC CHARGES AND SPIN POPULATIONS
-------------------------------------------
   0 C :   -0.124978    0.894661
   1 H :    0.041494    0.035211
   2 H :    0.042834    0.034772
   3 H :    0.040649    0.035356

  Mayer bond orders larger than 0.100000
B(  0-C ,  1-H ) :   0.9810 B(  0-C ,  2-H ) :   0.9818 B(  0-C ,  3-H ) :   0.9825

FINAL SINGLE POINT ENERGY       -39.824460056069

DIPOLE MOMENT
-------------
                                X             Y             Z
Electronic contribution:      0.12311       0.00777       0.00014
Nuclear contribution   :     -0.14390      -0.01155       0.00191
                        -----------------------------------------
Total Dipole Moment    :     -0.02079      -0.00378       0.00205
                        -----------------------------------------
Magnitude (a.u.)       :      0.02123
Magnitude (Debye)      :      0.05397

Rotational constants in cm-1:    11.378064     9.068577     5.046543
Rotational constants in MHz : 341105.775983 271869.108098 151291.567363

                             ****ORCA TERMINATED NORMALLY****
TOTAL RUN TIME: 0 days 0 hours 0 minutes 18 seconds 651 msec
