                         Program Version 5.0.3 -  RELEASE  -
|  1> !B3LYP EPR-III Autoaux
|  2> !PAL4
|  3>
|  4> * xyz 0 2
|  5>  C    -89.4627729489   -118.0941981194    -32.5382717087
|  6>  H    -90.5026115496   -117.6535106867    -32.5565760476
|  7>  H    -89.4635518158   -119.2160271094    -32.6426628309
|  8>  H    -88.6554308555   -117.4427495848    -32.4516066601
|  9> *
| 10>
| 11> %EPRNMR
| 12>         GTENSOR   TRUE
| 13>         NUCLEI    = ALL H {AISO, ADIP, AORB}
| 14>         NUCLEI    = ALL C {AISO, ADIP, AORB}
| 15> END
| 16>
| 17>
| 18>                          ****END OF INPUT****

CARTESIAN COORDINATES (ANGSTROEM)
---------------------------------
  C    -89.462773  -118.094198  -32.538272
  H    -90.502612  -117.653511  -32.556576
  H    -89.463552  -119.216027  -32.642663
  H    -88.655431  -117.442750  -32.451607

 Total Charge           Charge          ....    0
 Multiplicity           Mult            ....    2
 Number of Electrons    NEL             ....    9
 Basis Dimension        Dim             ....   73

ORBITAL ENERGIES
----------------
                 SPIN UP ORBITALS
  NO   OCC          E(Eh)            E(eV)
   0   1.0000     -10.189940      -277.2824
   1   1.0000      -0.683585       -18.6013
   2   1.0000      -0.437394       -11.9021
   3   1.0000      -0.400002       -10.8846
   4   1.0000      -0.235074        -6.3967
   5   0.0000       0.000245         0.0067
   6   0.0000       0.034800         0.9469
   7   0.0000       0.038383         1.0445
   8   0.0000       0.047368         1.2889
   9   0.0000       0.082309         2.2397

                 SPIN DOWN ORBITALS
  NO   OCC          E(Eh)            E(eV)
   0   1.0000     -10.175385      -276.8863
   1   1.0000      -0.643902       -17.5215
   2   1.0000      -0.428042       -11.6476
   3   1.0000      -0.390798       -10.6342
   4   0.0000      -0.077311        -2.1037
   5   0.0000       0.003575         0.0973
   6   0.0000       0.034490         0.9385
   7   0.0000       0.038035         1.0350
   8   0.0000       0.060662         1.6507

MULLIKEN ATOMIC CHARGES AND SPIN POPULATIONS
--------------------------------------------
   0 C :   -0.428926    1.107356
   1 H :    0.132216   -0.038200
   2 H :    0.144048   -0.037919
   3 H :    0.152662   -0.031237
Sum of atomic charges         :   -0.0000000

LOEWDIN ATOMIC CHARGES AND SPIN POPULATIONS
-------------------------------------------
   0 C :   -0.163935    0.915462
   1 H :    0.067396    0.023471
   2 H :    0.069091    0.023376
   3 H :    0.027448    0.037692

  Mayer bond orders larger than 0.100000
B(  0-C ,  1-H ) :   0.9768 B(  0-C ,  2-H ) :   0.9743 B(  0-C ,  3-H ) :   0.9746

FINAL SINGLE POINT ENERGY       -39.823421761084

DIPOLE MOMENT
-------------
                                X             Y             Z
Electronic contribution:      0.16817       0.02571       0.02073
Nuclear contribution   :     -0.17484      -0.02225      -0.02700
                        -----------------------------------------
Total Dipole Moment    :     -0.00667       0.00345      -0.00627
                        -----------------------------------------
Magnitude (a.u.)       :      0.00978
Magnitude (Debye)      :      0.02486

Rotational constants in cm-1:     9.819115     8.701074     4.613511
Rotational constants in MHz : 294369.673771 260851.623461 138309.571887

                             ****ORCA TERMINATED NORMALLY****
TOTAL RUN TIME: 0 days 0 hours 0 minutes 17 seconds 963 msec
