                         Program Version 5.0.3 -  RELEASE  -
|  1> !B3LYP EPR-III Autoaux
|  2> !PAL4
|  3>
|  4> * xyz 0 2
|  5>  C      1.2117397474    -13.5102944071    -10.0751265103
|  6>  H      0.6792364985    -13.4037490860     -9.2261986379
|  7>  H      1.6528659692    -14.4619963508    -10.4399920686
|  8>  H      1.4363520777    -12.5826102651    -10.5269756611
|  9> *
| 10>
| 11> %EPRNMR
| 12>         GTENSOR   TRUE
| 13>         NUCLEI    = ALL H {AISO, ADIP, AORB}
| 14>         NUCLEI    = ALL C {AISO, ADIP, AORB}
| 15> END
| 16>
| 17>
| 18>                          ****END OF INPUT****

CARTESIAN COORDINATES (ANGSTROEM)
---------------------------------
  C      1.211740  -13.510294  -10.075127
  H      0.679236  -13.403749   -9.226199
  H      1.652866  -14.461996  -10.439992
  H      1.436352  -12.582610  -10.526976

 Total Charge           Charge          ....    0
 Multiplicity           Mult            ....    2
 Number of Electrons    NEL             ....    9
 Basis Dimension        Dim             ....   73

ORBITAL ENERGIES
----------------
                 SPIN UP ORBITALS
  NO   OCC          E(Eh)            E(eV)
   0   1.0000     -10.177448      -276.9424
   1   1.0000      -0.695476       -18.9249
   2   1.0000      -0.434394       -11.8205
   3   1.0000      -0.419605       -11.4180
   4   1.0000      -0.235284        -6.4024
   5   0.0000       0.001395         0.0380
   6   0.0000       0.035790         0.9739
   7   0.0000       0.037767         1.0277
   8   0.0000       0.047473         1.2918
   9   0.0000       0.087364         2.3773

                 SPIN DOWN ORBITALS
  NO   OCC          E(Eh)            E(eV)
   0   1.0000     -10.163163      -276.5537
   1   1.0000      -0.656549       -17.8656
   2   1.0000      -0.424734       -11.5576
   3   1.0000      -0.409690       -11.1482
   4   0.0000      -0.077943        -2.1209
   5   0.0000       0.004346         0.1183
   6   0.0000       0.035416         0.9637
   7   0.0000       0.037285         1.0146
   8   0.0000       0.060643         1.6502

MULLIKEN ATOMIC CHARGES AND SPIN POPULATIONS
--------------------------------------------
   0 C :   -0.429813    1.098237
   1 H :    0.146694   -0.030146
   2 H :    0.144795   -0.035052
   3 H :    0.138324   -0.033039
Sum of atomic charges         :   -0.0000000

LOEWDIN ATOMIC CHARGES AND SPIN POPULATIONS
-------------------------------------------
   0 C :   -0.127884    0.896792
   1 H :    0.015697    0.043075
   2 H :    0.069889    0.025403
   3 H :    0.042298    0.034730

  Mayer bond orders larger than 0.100000
B(  0-C ,  1-H ) :   0.9806 B(  0-C ,  2-H ) :   0.9787 B(  0-C ,  3-H ) :   0.9816

FINAL SINGLE POINT ENERGY       -39.822438983295

DIPOLE MOMENT
-------------
                                X             Y             Z
Electronic contribution:     -0.07284      -0.04422       0.00339
Nuclear contribution   :      0.09986       0.06185       0.02414
                        -----------------------------------------
Total Dipole Moment    :      0.02702       0.01764       0.02754
                        -----------------------------------------
Magnitude (a.u.)       :      0.04242
Magnitude (Debye)      :      0.10782

Rotational constants in cm-1:    11.332215     8.840212     4.981016
Rotational constants in MHz : 339731.244510 265022.900067 149327.104769

                             ****ORCA TERMINATED NORMALLY****
TOTAL RUN TIME: 0 days 0 hours 0 minutes 22 seconds 410 msec
