                         Program Version 5.0.3 -  RELEASE  -
|  1> !B3LYP EPR-III Autoaux
|  2> !PAL4
|  3>
|  4> * xyz 0 2
|  5>  C    -86.5392845077   -114.4613441284    -31.9196944255
|  6>  H    -85.5401649492   -114.1054029896    -31.8585491267
|  7>  H    -87.3561275309   -113.7436452590    -31.9050997582
|  8>  H    -86.8581997779   -115.3850764684    -32.0177951399
|  9> *
| 10>
| 11> %EPRNMR
| 12>         GTENSOR   TRUE
| 13>         NUCLEI    = ALL H {AISO, ADIP, AORB}
| 14>         NUCLEI    = ALL C {AISO, ADIP, AORB}
| 15> END
| 16>
| 17>
| 18>                          ****END OF INPUT****

CARTESIAN COORDINATES (ANGSTROEM)
---------------------------------
  C    -86.539285  -114.461344  -31.919694
  H    -85.540165  -114.105403  -31.858549
  H    -87.356128  -113.743645  -31.905100
  H    -86.858200  -115.385076  -32.017795

 Total Charge           Charge          ....    0
 Multiplicity           Mult            ....    2
 Number of Electrons    NEL             ....    9
 Basis Dimension        Dim             ....   73

ORBITAL ENERGIES
----------------
                 SPIN UP ORBITALS
  NO   OCC          E(Eh)            E(eV)
   0   1.0000     -10.172940      -276.8198
   1   1.0000      -0.699164       -19.0252
   2   1.0000      -0.448631       -12.2079
   3   1.0000      -0.412554       -11.2262
   4   1.0000      -0.234891        -6.3917
   5   0.0000       0.001860         0.0506
   6   0.0000       0.035234         0.9588
   7   0.0000       0.038332         1.0431
   8   0.0000       0.047641         1.2964
   9   0.0000       0.091542         2.4910

                 SPIN DOWN ORBITALS
  NO   OCC          E(Eh)            E(eV)
   0   1.0000     -10.158697      -276.4322
   1   1.0000      -0.660126       -17.9629
   2   1.0000      -0.438655       -11.9364
   3   1.0000      -0.402757       -10.9596
   4   0.0000      -0.077801        -2.1171
   5   0.0000       0.004713         0.1282
   6   0.0000       0.034832         0.9478
   7   0.0000       0.037868         1.0304
   8   0.0000       0.060785         1.6540

MULLIKEN ATOMIC CHARGES AND SPIN POPULATIONS
--------------------------------------------
   0 C :   -0.430827    1.097265
   1 H :    0.147502   -0.032674
   2 H :    0.131610   -0.035520
   3 H :    0.151716   -0.029071
Sum of atomic charges         :    0.0000000

LOEWDIN ATOMIC CHARGES AND SPIN POPULATIONS
-------------------------------------------
   0 C :   -0.113267    0.890460
   1 H :    0.050027    0.032797
   2 H :    0.059920    0.029371
   3 H :    0.003320    0.047372

  Mayer bond orders larger than 0.100000
B(  0-C ,  1-H ) :   0.9815 B(  0-C ,  2-H ) :   0.9837 B(  0-C ,  3-H ) :   0.9821

FINAL SINGLE POINT ENERGY       -39.819506664019

DIPOLE MOMENT
-------------
                                X             Y             Z
Electronic contribution:      0.09314      -0.11425       0.00771
Nuclear contribution   :     -0.10241       0.11235      -0.01676
                        -----------------------------------------
Total Dipole Moment    :     -0.00927      -0.00189      -0.00905
                        -----------------------------------------
Magnitude (a.u.)       :      0.01309
Magnitude (Debye)      :      0.03327

Rotational constants in cm-1:    11.255548     9.356441     5.109934
Rotational constants in MHz : 337432.837555 280499.038671 153191.968378

                             ****ORCA TERMINATED NORMALLY****
TOTAL RUN TIME: 0 days 0 hours 0 minutes 24 seconds 271 msec
