                         Program Version 5.0.3 -  RELEASE  -
|  1> !B3LYP EPR-III Autoaux
|  2> !PAL4
|  3>
|  4> * xyz 0 2
|  5>  C      7.4499462364     -6.4322436799     -8.4546896589
|  6>  H      7.0534805349     -6.3107567495     -7.4982811928
|  7>  H      6.8672441355     -7.0261987640     -9.1295839543
|  8>  H      8.2964221013     -5.8815839222     -8.7923874081
|  9> *
| 10>
| 11> %EPRNMR
| 12>         GTENSOR   TRUE
| 13>         NUCLEI    = ALL H {AISO, ADIP, AORB}
| 14>         NUCLEI    = ALL C {AISO, ADIP, AORB}
| 15> END
| 16>
| 17>
| 18>                          ****END OF INPUT****

CARTESIAN COORDINATES (ANGSTROEM)
---------------------------------
  C      7.449946   -6.432244   -8.454690
  H      7.053481   -6.310757   -7.498281
  H      6.867244   -7.026199   -9.129584
  H      8.296422   -5.881584   -8.792387

 Total Charge           Charge          ....    0
 Multiplicity           Mult            ....    2
 Number of Electrons    NEL             ....    9
 Basis Dimension        Dim             ....   73

ORBITAL ENERGIES
----------------
                 SPIN UP ORBITALS
  NO   OCC          E(Eh)            E(eV)
   0   1.0000     -10.177841      -276.9531
   1   1.0000      -0.693357       -18.8672
   2   1.0000      -0.432959       -11.7814
   3   1.0000      -0.421257       -11.4630
   4   1.0000      -0.235235        -6.4011
   5   0.0000       0.001608         0.0437
   6   0.0000       0.036273         0.9870
   7   0.0000       0.037496         1.0203
   8   0.0000       0.047594         1.2951
   9   0.0000       0.093301         2.5389

                 SPIN DOWN ORBITALS
  NO   OCC          E(Eh)            E(eV)
   0   1.0000     -10.163517      -276.5634
   1   1.0000      -0.654242       -17.8028
   2   1.0000      -0.423301       -11.5186
   3   1.0000      -0.411485       -11.1971
   4   0.0000      -0.077814        -2.1174
   5   0.0000       0.004538         0.1235
   6   0.0000       0.035867         0.9760
   7   0.0000       0.037060         1.0085
   8   0.0000       0.060775         1.6538

MULLIKEN ATOMIC CHARGES AND SPIN POPULATIONS
--------------------------------------------
   0 C :   -0.426306    1.097962
   1 H :    0.142664   -0.031815
   2 H :    0.139157   -0.033629
   3 H :    0.144485   -0.032518
Sum of atomic charges         :    0.0000000

LOEWDIN ATOMIC CHARGES AND SPIN POPULATIONS
-------------------------------------------
   0 C :   -0.130919    0.898006
   1 H :    0.034584    0.036937
   2 H :    0.049395    0.032079
   3 H :    0.046941    0.032978

  Mayer bond orders larger than 0.100000
B(  0-C ,  1-H ) :   0.9804 B(  0-C ,  2-H ) :   0.9807 B(  0-C ,  3-H ) :   0.9798

FINAL SINGLE POINT ENERGY       -39.827365664621

DIPOLE MOMENT
-------------
                                X             Y             Z
Electronic contribution:      0.07010      -0.02705       0.03388
Nuclear contribution   :     -0.09945       0.05860      -0.04211
                        -----------------------------------------
Total Dipole Moment    :     -0.02935       0.03156      -0.00823
                        -----------------------------------------
Magnitude (a.u.)       :      0.04387
Magnitude (Debye)      :      0.11152

Rotational constants in cm-1:    10.400570     9.477738     4.976758
Rotational constants in MHz : 311801.243740 284135.451925 149199.448527

                             ****ORCA TERMINATED NORMALLY****
TOTAL RUN TIME: 0 days 0 hours 0 minutes 31 seconds 998 msec
