                         Program Version 5.0.3 -  RELEASE  -
|  1> !B3LYP EPR-III Autoaux
|  2> !PAL4
|  3>
|  4> * xyz 0 2
|  5>  C    -58.5057976297    -80.6669181852    -25.3107280189
|  6>  H    -58.2553261557    -79.6377132704    -25.2266785524
|  7>  H    -59.4744850714    -81.0483008766    -25.3259623095
|  8>  H    -57.6829884496    -81.3436412078    -25.3301233078
|  9> *
| 10>
| 11> %EPRNMR
| 12>         GTENSOR   TRUE
| 13>         NUCLEI    = ALL H {AISO, ADIP, AORB}
| 14>         NUCLEI    = ALL C {AISO, ADIP, AORB}
| 15> END
| 16>
| 17>
| 18>                          ****END OF INPUT****

CARTESIAN COORDINATES (ANGSTROEM)
---------------------------------
  C    -58.505798  -80.666918  -25.310728
  H    -58.255326  -79.637713  -25.226679
  H    -59.474485  -81.048301  -25.325962
  H    -57.682988  -81.343641  -25.330123

 Total Charge           Charge          ....    0
 Multiplicity           Mult            ....    2
 Number of Electrons    NEL             ....    9
 Basis Dimension        Dim             ....   73

ORBITAL ENERGIES
----------------
                 SPIN UP ORBITALS
  NO   OCC          E(Eh)            E(eV)
   0   1.0000     -10.176847      -276.9261
   1   1.0000      -0.694077       -18.8868
   2   1.0000      -0.437500       -11.9050
   3   1.0000      -0.418567       -11.3898
   4   1.0000      -0.234676        -6.3858
   5   0.0000       0.001715         0.0467
   6   0.0000       0.035913         0.9772
   7   0.0000       0.037751         1.0273
   8   0.0000       0.047615         1.2957
   9   0.0000       0.092130         2.5070

                 SPIN DOWN ORBITALS
  NO   OCC          E(Eh)            E(eV)
   0   1.0000     -10.162554      -276.5372
   1   1.0000      -0.654881       -17.8202
   2   1.0000      -0.427840       -11.6421
   3   1.0000      -0.408809       -11.1243
   4   0.0000      -0.077554        -2.1104
   5   0.0000       0.004643         0.1263
   6   0.0000       0.035499         0.9660
   7   0.0000       0.037303         1.0151
   8   0.0000       0.060809         1.6547

MULLIKEN ATOMIC CHARGES AND SPIN POPULATIONS
--------------------------------------------
   0 C :   -0.427566    1.098540
   1 H :    0.142976   -0.033287
   2 H :    0.146926   -0.031466
   3 H :    0.137664   -0.033787
Sum of atomic charges         :   -0.0000000

LOEWDIN ATOMIC CHARGES AND SPIN POPULATIONS
-------------------------------------------
   0 C :   -0.128123    0.896696
   1 H :    0.046161    0.033322
   2 H :    0.035253    0.036910
   3 H :    0.046708    0.033072

  Mayer bond orders larger than 0.100000
B(  0-C ,  1-H ) :   0.9806 B(  0-C ,  2-H ) :   0.9804 B(  0-C ,  3-H ) :   0.9813

FINAL SINGLE POINT ENERGY       -39.827069113831

DIPOLE MOMENT
-------------
                                X             Y             Z
Electronic contribution:     -0.07213       0.01738      -0.02266
Nuclear contribution   :      0.07839      -0.02166       0.03704
                        -----------------------------------------
Total Dipole Moment    :      0.00626      -0.00428       0.01438
                        -----------------------------------------
Magnitude (a.u.)       :      0.01626
Magnitude (Debye)      :      0.04133

Rotational constants in cm-1:    10.437667     9.578887     4.996934
Rotational constants in MHz : 312913.375902 287167.812303 149804.325694

                             ****ORCA TERMINATED NORMALLY****
TOTAL RUN TIME: 0 days 0 hours 0 minutes 19 seconds 957 msec
