                         Program Version 5.0.3 -  RELEASE  -
|  1> !B3LYP EPR-III Autoaux
|  2> !PAL4
|  3>
|  4> * xyz 0 2
|  5>  C    -85.5787662282   -113.2694163167    -31.7123180541
|  6>  H    -84.6438113126   -113.7779028579    -31.7152985191
|  7>  H    -85.6635844877   -112.2287473973    -31.6168496400
|  8>  H    -86.5778390938   -113.7256508374    -31.7828793095
|  9> *
| 10>
| 11> %EPRNMR
| 12>         GTENSOR   TRUE
| 13>         NUCLEI    = ALL H {AISO, ADIP, AORB}
| 14>         NUCLEI    = ALL C {AISO, ADIP, AORB}
| 15> END
| 16>
| 17>
| 18>                          ****END OF INPUT****

CARTESIAN COORDINATES (ANGSTROEM)
---------------------------------
  C    -85.578766  -113.269416  -31.712318
  H    -84.643811  -113.777903  -31.715299
  H    -85.663584  -112.228747  -31.616850
  H    -86.577839  -113.725651  -31.782879

 Total Charge           Charge          ....    0
 Multiplicity           Mult            ....    2
 Number of Electrons    NEL             ....    9
 Basis Dimension        Dim             ....   73

ORBITAL ENERGIES
----------------
                 SPIN UP ORBITALS
  NO   OCC          E(Eh)            E(eV)
   0   1.0000     -10.181417      -277.0505
   1   1.0000      -0.690677       -18.7943
   2   1.0000      -0.439748       -11.9661
   3   1.0000      -0.409065       -11.1312
   4   1.0000      -0.234752        -6.3879
   5   0.0000       0.001202         0.0327
   6   0.0000       0.035087         0.9548
   7   0.0000       0.038374         1.0442
   8   0.0000       0.047531         1.2934
   9   0.0000       0.086828         2.3627

                 SPIN DOWN ORBITALS
  NO   OCC          E(Eh)            E(eV)
   0   1.0000     -10.167036      -276.6591
   1   1.0000      -0.651384       -17.7251
   2   1.0000      -0.430331       -11.7099
   3   1.0000      -0.399300       -10.8655
   4   0.0000      -0.077452        -2.1076
   5   0.0000       0.004261         0.1159
   6   0.0000       0.034725         0.9449
   7   0.0000       0.037939         1.0324
   8   0.0000       0.060761         1.6534

MULLIKEN ATOMIC CHARGES AND SPIN POPULATIONS
--------------------------------------------
   0 C :   -0.429427    1.102223
   1 H :    0.150411   -0.032305
   2 H :    0.140389   -0.033363
   3 H :    0.138627   -0.036556
Sum of atomic charges         :   -0.0000000

LOEWDIN ATOMIC CHARGES AND SPIN POPULATIONS
-------------------------------------------
   0 C :   -0.141902    0.903389
   1 H :    0.045483    0.033023
   2 H :    0.034964    0.036206
   3 H :    0.061454    0.027381

  Mayer bond orders larger than 0.100000
B(  0-C ,  1-H ) :   0.9778 B(  0-C ,  2-H ) :   0.9795 B(  0-C ,  3-H ) :   0.9795

FINAL SINGLE POINT ENERGY       -39.825625971433

DIPOLE MOMENT
-------------
                                X             Y             Z
Electronic contribution:      0.10545      -0.04121      -0.00934
Nuclear contribution   :     -0.11162       0.05692       0.01643
                        -----------------------------------------
Total Dipole Moment    :     -0.00618       0.01571       0.00710
                        -----------------------------------------
Magnitude (a.u.)       :      0.01832
Magnitude (Debye)      :      0.04656

Rotational constants in cm-1:    10.920961     8.755314     4.859800
Rotational constants in MHz : 327402.171905 262477.713191 145693.133527

                             ****ORCA TERMINATED NORMALLY****
TOTAL RUN TIME: 0 days 0 hours 0 minutes 21 seconds 333 msec
