                         Program Version 5.0.3 -  RELEASE  -
|  1> !B3LYP EPR-III Autoaux
|  2> !PAL4
|  3>
|  4> * xyz 0 2
|  5>  C    -20.5258617112    -38.1459971428    -15.6959879683
|  6>  H    -21.5760321136    -38.5600147205    -15.7559716610
|  7>  H    -19.6299294504    -38.4663694462    -16.0534105982
|  8>  H    -20.5380515145    -37.1801980776    -15.3098501395
|  9> *
| 10>
| 11> %EPRNMR
| 12>         GTENSOR   TRUE
| 13>         NUCLEI    = ALL H {AISO, ADIP, AORB}
| 14>         NUCLEI    = ALL C {AISO, ADIP, AORB}
| 15> END
| 16>
| 17>
| 18>                          ****END OF INPUT****

CARTESIAN COORDINATES (ANGSTROEM)
---------------------------------
  C    -20.525862  -38.145997  -15.695988
  H    -21.576032  -38.560015  -15.755972
  H    -19.629929  -38.466369  -16.053411
  H    -20.538052  -37.180198  -15.309850

 Total Charge           Charge          ....    0
 Multiplicity           Mult            ....    2
 Number of Electrons    NEL             ....    9
 Basis Dimension        Dim             ....   73

ORBITAL ENERGIES
----------------
                 SPIN UP ORBITALS
  NO   OCC          E(Eh)            E(eV)
   0   1.0000     -10.178605      -276.9739
   1   1.0000      -0.694970       -18.9111
   2   1.0000      -0.445411       -12.1203
   3   1.0000      -0.405710       -11.0399
   4   1.0000      -0.235558        -6.4099
   5   0.0000       0.001173         0.0319
   6   0.0000       0.034427         0.9368
   7   0.0000       0.038919         1.0590
   8   0.0000       0.047534         1.2935
   9   0.0000       0.081154         2.2083

                 SPIN DOWN ORBITALS
  NO   OCC          E(Eh)            E(eV)
   0   1.0000     -10.164238      -276.5830
   1   1.0000      -0.655971       -17.8499
   2   1.0000      -0.435853       -11.8602
   3   1.0000      -0.395681       -10.7670
   4   0.0000      -0.077976        -2.1218
   5   0.0000       0.004168         0.1134
   6   0.0000       0.034103         0.9280
   7   0.0000       0.038483         1.0472
   8   0.0000       0.060699         1.6517

MULLIKEN ATOMIC CHARGES AND SPIN POPULATIONS
--------------------------------------------
   0 C :   -0.431847    1.100544
   1 H :    0.143516   -0.038150
   2 H :    0.153354   -0.029563
   3 H :    0.134977   -0.032831
Sum of atomic charges         :    0.0000000

LOEWDIN ATOMIC CHARGES AND SPIN POPULATIONS
-------------------------------------------
   0 C :   -0.131895    0.898931
   1 H :    0.078184    0.022194
   2 H :    0.021683    0.041234
   3 H :    0.032028    0.037641

  Mayer bond orders larger than 0.100000
B(  0-C ,  1-H ) :   0.9793 B(  0-C ,  2-H ) :   0.9807 B(  0-C ,  3-H ) :   0.9811

FINAL SINGLE POINT ENERGY       -39.819229456442

DIPOLE MOMENT
-------------
                                X             Y             Z
Electronic contribution:      0.11889      -0.12538      -0.00165
Nuclear contribution   :     -0.12473       0.17344      -0.02344
                        -----------------------------------------
Total Dipole Moment    :     -0.00584       0.04805      -0.02508
                        -----------------------------------------
Magnitude (a.u.)       :      0.05452
Magnitude (Debye)      :      0.13858

Rotational constants in cm-1:    11.640336     8.547490     4.945520
Rotational constants in MHz : 348968.479677 256247.314917 148262.970401

                             ****ORCA TERMINATED NORMALLY****
TOTAL RUN TIME: 0 days 0 hours 0 minutes 20 seconds 381 msec
