                         Program Version 5.0.3 -  RELEASE  -
|  1> !B3LYP EPR-III Autoaux
|  2> !PAL4
|  3>
|  4> * xyz 0 2
|  5>  C    -31.3301232856    -50.2900095240    -18.4637930365
|  6>  H    -31.7742200475    -49.3378405713    -18.5362802816
|  7>  H    -31.7708856050    -51.2489357437    -18.3576620524
|  8>  H    -30.2631880770    -50.3455829489    -18.3702356345
|  9> *
| 10>
| 11> %EPRNMR
| 12>         GTENSOR   TRUE
| 13>         NUCLEI    = ALL H {AISO, ADIP, AORB}
| 14>         NUCLEI    = ALL C {AISO, ADIP, AORB}
| 15> END
| 16>
| 17>
| 18>                          ****END OF INPUT****

CARTESIAN COORDINATES (ANGSTROEM)
---------------------------------
  C    -31.330123  -50.290010  -18.463793
  H    -31.774220  -49.337841  -18.536280
  H    -31.770886  -51.248936  -18.357662
  H    -30.263188  -50.345583  -18.370236

 Total Charge           Charge          ....    0
 Multiplicity           Mult            ....    2
 Number of Electrons    NEL             ....    9
 Basis Dimension        Dim             ....   73

ORBITAL ENERGIES
----------------
                 SPIN UP ORBITALS
  NO   OCC          E(Eh)            E(eV)
   0   1.0000     -10.178802      -276.9793
   1   1.0000      -0.693072       -18.8594
   2   1.0000      -0.443635       -12.0719
   3   1.0000      -0.408839       -11.1251
   4   1.0000      -0.235119        -6.3979
   5   0.0000       0.001478         0.0402
   6   0.0000       0.034949         0.9510
   7   0.0000       0.038583         1.0499
   8   0.0000       0.047565         1.2943
   9   0.0000       0.087720         2.3870

                 SPIN DOWN ORBITALS
  NO   OCC          E(Eh)            E(eV)
   0   1.0000     -10.164464      -276.5891
   1   1.0000      -0.653930       -17.7943
   2   1.0000      -0.434142       -11.8136
   3   1.0000      -0.398932       -10.8555
   4   0.0000      -0.077764        -2.1161
   5   0.0000       0.004437         0.1207
   6   0.0000       0.034573         0.9408
   7   0.0000       0.038131         1.0376
   8   0.0000       0.060752         1.6531

MULLIKEN ATOMIC CHARGES AND SPIN POPULATIONS
--------------------------------------------
   0 C :   -0.429094    1.099967
   1 H :    0.150309   -0.031768
   2 H :    0.145429   -0.033603
   3 H :    0.133356   -0.034596
Sum of atomic charges         :    0.0000000

LOEWDIN ATOMIC CHARGES AND SPIN POPULATIONS
-------------------------------------------
   0 C :   -0.134572    0.899434
   1 H :    0.041408    0.034768
   2 H :    0.044728    0.033628
   3 H :    0.048436    0.032170

  Mayer bond orders larger than 0.100000
B(  0-C ,  1-H ) :   0.9794 B(  0-C ,  2-H ) :   0.9803 B(  0-C ,  3-H ) :   0.9814

FINAL SINGLE POINT ENERGY       -39.825508069600

DIPOLE MOMENT
-------------
                                X             Y             Z
Electronic contribution:     -0.12161       0.04432      -0.06184
Nuclear contribution   :      0.13646      -0.04672       0.09533
                        -----------------------------------------
Total Dipole Moment    :      0.01486      -0.00240       0.03349
                        -----------------------------------------
Magnitude (a.u.)       :      0.03672
Magnitude (Debye)      :      0.09333

Rotational constants in cm-1:    10.992029     8.978422     4.951581
Rotational constants in MHz : 329532.753361 269166.330834 148444.671106

                             ****ORCA TERMINATED NORMALLY****
TOTAL RUN TIME: 0 days 0 hours 0 minutes 25 seconds 744 msec
