                         Program Version 5.0.3 -  RELEASE  -
|  1> !B3LYP EPR-III Autoaux
|  2> !PAL4
|  3>
|  4> * xyz 0 2
|  5>  C    -67.9343790967    -91.6841322142    -27.5300536683
|  6>  H    -69.0316073907    -91.8351347778    -27.5428235027
|  7>  H    -67.3495358526    -92.6566025651    -27.6100932306
|  8>  H    -67.4752534443    -90.7087953049    -27.4309245951
|  9> *
| 10>
| 11> %EPRNMR
| 12>         GTENSOR   TRUE
| 13>         NUCLEI    = ALL H {AISO, ADIP, AORB}
| 14>         NUCLEI    = ALL C {AISO, ADIP, AORB}
| 15> END
| 16>
| 17>
| 18>                          ****END OF INPUT****

CARTESIAN COORDINATES (ANGSTROEM)
---------------------------------
  C    -67.934379  -91.684132  -27.530054
  H    -69.031607  -91.835135  -27.542824
  H    -67.349536  -92.656603  -27.610093
  H    -67.475253  -90.708795  -27.430925

 Total Charge           Charge          ....    0
 Multiplicity           Mult            ....    2
 Number of Electrons    NEL             ....    9
 Basis Dimension        Dim             ....   73

ORBITAL ENERGIES
----------------
                 SPIN UP ORBITALS
  NO   OCC          E(Eh)            E(eV)
   0   1.0000     -10.193191      -277.3708
   1   1.0000      -0.680116       -18.5069
   2   1.0000      -0.429470       -11.6865
   3   1.0000      -0.403893       -10.9905
   4   1.0000      -0.234968        -6.3938
   5   0.0000      -0.000153        -0.0042
   6   0.0000       0.035318         0.9611
   7   0.0000       0.037884         1.0309
   8   0.0000       0.047240         1.2855
   9   0.0000       0.083660         2.2765

                 SPIN DOWN ORBITALS
  NO   OCC          E(Eh)            E(eV)
   0   1.0000     -10.178623      -276.9744
   1   1.0000      -0.640362       -17.4251
   2   1.0000      -0.420345       -11.4382
   3   1.0000      -0.394756       -10.7419
   4   0.0000      -0.077211        -2.1010
   5   0.0000       0.003289         0.0895
   6   0.0000       0.034985         0.9520
   7   0.0000       0.037527         1.0212
   8   0.0000       0.060573         1.6483

MULLIKEN ATOMIC CHARGES AND SPIN POPULATIONS
--------------------------------------------
   0 C :   -0.428276    1.108332
   1 H :    0.140066   -0.036416
   2 H :    0.138391   -0.038326
   3 H :    0.149819   -0.033590
Sum of atomic charges         :    0.0000000

LOEWDIN ATOMIC CHARGES AND SPIN POPULATIONS
-------------------------------------------
   0 C :   -0.174799    0.920073
   1 H :    0.057195    0.026952
   2 H :    0.070362    0.022189
   3 H :    0.047243    0.030786

  Mayer bond orders larger than 0.100000
B(  0-C ,  1-H ) :   0.9739 B(  0-C ,  2-H ) :   0.9738 B(  0-C ,  3-H ) :   0.9724

FINAL SINGLE POINT ENERGY       -39.825483819014

DIPOLE MOMENT
-------------
                                X             Y             Z
Electronic contribution:      0.03333       0.10840       0.00057
Nuclear contribution   :     -0.03992      -0.11103       0.00474
                        -----------------------------------------
Total Dipole Moment    :     -0.00658      -0.00263       0.00531
                        -----------------------------------------
Magnitude (a.u.)       :      0.00885
Magnitude (Debye)      :      0.02250

Rotational constants in cm-1:     9.578997     8.596250     4.530793
Rotational constants in MHz : 287171.104180 257709.090940 135829.745007

                             ****ORCA TERMINATED NORMALLY****
TOTAL RUN TIME: 0 days 0 hours 0 minutes 20 seconds 679 msec
