                         Program Version 5.0.3 -  RELEASE  -
|  1> !B3LYP EPR-III Autoaux
|  2> !PAL4
|  3>
|  4> * xyz 0 2
|  5>  C      7.5047937687     -6.3756669408     -8.4430678651
|  6>  H      7.2734200093     -5.9858624127     -7.3701670311
|  7>  H      6.8236259180     -6.7441120734     -9.2048558094
|  8>  H      8.5033532571     -5.9969255613     -8.7164314688
|  9> *
| 10>
| 11> %EPRNMR
| 12>         GTENSOR   TRUE
| 13>         NUCLEI    = ALL H {AISO, ADIP, AORB}
| 14>         NUCLEI    = ALL C {AISO, ADIP, AORB}
| 15> END
| 16>
| 17>
| 18>                          ****END OF INPUT****

CARTESIAN COORDINATES (ANGSTROEM)
---------------------------------
  C      7.504794   -6.375667   -8.443068
  H      7.273420   -5.985862   -7.370167
  H      6.823626   -6.744112   -9.204856
  H      8.503353   -5.996926   -8.716431

 Total Charge           Charge          ....    0
 Multiplicity           Mult            ....    2
 Number of Electrons    NEL             ....    9
 Basis Dimension        Dim             ....   73

ORBITAL ENERGIES
----------------
                 SPIN UP ORBITALS
  NO   OCC          E(Eh)            E(eV)
   0   1.0000     -10.195935      -277.4455
   1   1.0000      -0.679360       -18.4863
   2   1.0000      -0.433870       -11.8062
   3   1.0000      -0.392836       -10.6896
   4   1.0000      -0.237943        -6.4748
   5   0.0000      -0.000793        -0.0216
   6   0.0000       0.034410         0.9363
   7   0.0000       0.038994         1.0611
   8   0.0000       0.047167         1.2835
   9   0.0000       0.076393         2.0787

                 SPIN DOWN ORBITALS
  NO   OCC          E(Eh)            E(eV)
   0   1.0000     -10.181206      -277.0447
   1   1.0000      -0.640027       -17.4160
   2   1.0000      -0.424718       -11.5572
   3   1.0000      -0.383334       -10.4311
   4   0.0000      -0.078780        -2.1437
   5   0.0000       0.002655         0.0722
   6   0.0000       0.034183         0.9302
   7   0.0000       0.038694         1.0529
   8   0.0000       0.060367         1.6427

MULLIKEN ATOMIC CHARGES AND SPIN POPULATIONS
--------------------------------------------
   0 C :   -0.426464    1.104975
   1 H :    0.138472   -0.038722
   2 H :    0.152948   -0.031107
   3 H :    0.135044   -0.035146
Sum of atomic charges         :   -0.0000000

LOEWDIN ATOMIC CHARGES AND SPIN POPULATIONS
-------------------------------------------
   0 C :   -0.182076    0.923007
   1 H :    0.080903    0.018380
   2 H :    0.048830    0.030546
   3 H :    0.052343    0.028067

  Mayer bond orders larger than 0.100000
B(  0-C ,  1-H ) :   0.9732 B(  0-C ,  2-H ) :   0.9709 B(  0-C ,  3-H ) :   0.9744

FINAL SINGLE POINT ENERGY       -39.820481951814

DIPOLE MOMENT
-------------
                                X             Y             Z
Electronic contribution:     -0.07048      -0.21563      -0.05958
Nuclear contribution   :      0.06447       0.29987       0.02829
                        -----------------------------------------
Total Dipole Moment    :     -0.00601       0.08424      -0.03129
                        -----------------------------------------
Magnitude (a.u.)       :      0.09007
Magnitude (Debye)      :      0.22893

Rotational constants in cm-1:    10.198402     7.858070     4.503929
Rotational constants in MHz : 305740.408703 235579.015645 135024.408497

                             ****ORCA TERMINATED NORMALLY****
TOTAL RUN TIME: 0 days 0 hours 0 minutes 20 seconds 341 msec
