                         Program Version 5.0.3 -  RELEASE  -
|  1> !B3LYP EPR-III Autoaux
|  2> !PAL4
|  3>
|  4> * xyz 0 2
|  5>  C    -22.1240836460    -39.9442962334    -16.1030738952
|  6>  H    -21.5495767940    -40.7834169913    -15.8709287113
|  7>  H    -21.8592406648    -38.8291387647    -16.2531671283
|  8>  H    -23.2093873492    -40.1452222213    -16.3251316993
|  9> *
| 10>
| 11> %EPRNMR
| 12>         GTENSOR   TRUE
| 13>         NUCLEI    = ALL H {AISO, ADIP, AORB}
| 14>         NUCLEI    = ALL C {AISO, ADIP, AORB}
| 15> END
| 16>
| 17>
| 18>                          ****END OF INPUT****

CARTESIAN COORDINATES (ANGSTROEM)
---------------------------------
  C    -22.124084  -39.944296  -16.103074
  H    -21.549577  -40.783417  -15.870929
  H    -21.859241  -38.829139  -16.253167
  H    -23.209387  -40.145222  -16.325132

 Total Charge           Charge          ....    0
 Multiplicity           Mult            ....    2
 Number of Electrons    NEL             ....    9
 Basis Dimension        Dim             ....   73

ORBITAL ENERGIES
----------------
                 SPIN UP ORBITALS
  NO   OCC          E(Eh)            E(eV)
   0   1.0000     -10.192644      -277.3559
   1   1.0000      -0.681949       -18.5568
   2   1.0000      -0.437472       -11.9042
   3   1.0000      -0.395064       -10.7502
   4   1.0000      -0.235343        -6.4040
   5   0.0000      -0.000307        -0.0083
   6   0.0000       0.034163         0.9296
   7   0.0000       0.038775         1.0551
   8   0.0000       0.047298         1.2871
   9   0.0000       0.076614         2.0848

                 SPIN DOWN ORBITALS
  NO   OCC          E(Eh)            E(eV)
   0   1.0000     -10.178021      -276.9580
   1   1.0000      -0.642250       -17.4765
   2   1.0000      -0.428281       -11.6541
   3   1.0000      -0.385778       -10.4976
   4   0.0000      -0.077356        -2.1050
   5   0.0000       0.003151         0.0857
   6   0.0000       0.033920         0.9230
   7   0.0000       0.038439         1.0460
   8   0.0000       0.060606         1.6492

MULLIKEN ATOMIC CHARGES AND SPIN POPULATIONS
--------------------------------------------
   0 C :   -0.431149    1.109680
   1 H :    0.154494   -0.031504
   2 H :    0.146500   -0.040108
   3 H :    0.130156   -0.038068
Sum of atomic charges         :    0.0000000

LOEWDIN ATOMIC CHARGES AND SPIN POPULATIONS
-------------------------------------------
   0 C :   -0.172102    0.919528
   1 H :    0.027483    0.037436
   2 H :    0.080848    0.018757
   3 H :    0.063771    0.024280

  Mayer bond orders larger than 0.100000
B(  0-C ,  1-H ) :   0.9735 B(  0-C ,  2-H ) :   0.9721 B(  0-C ,  3-H ) :   0.9764

FINAL SINGLE POINT ENERGY       -39.820156784890

DIPOLE MOMENT
-------------
                                X             Y             Z
Electronic contribution:      0.17256      -0.06380       0.08257
Nuclear contribution   :     -0.18434       0.05629      -0.10493
                        -----------------------------------------
Total Dipole Moment    :     -0.01178      -0.00751      -0.02236
                        -----------------------------------------
Magnitude (a.u.)       :      0.02636
Magnitude (Debye)      :      0.06701

Rotational constants in cm-1:    10.167420     8.187126     4.538700
Rotational constants in MHz : 304811.571471 245443.877302 136066.802048

                             ****ORCA TERMINATED NORMALLY****
TOTAL RUN TIME: 0 days 0 hours 0 minutes 29 seconds 811 msec
