                         Program Version 5.0.3 -  RELEASE  -
|  1> !B3LYP EPR-III Autoaux
|  2> !PAL4
|  3>
|  4> * xyz 0 2
|  5>  C      3.0176176052    -11.4642816091     -9.6170379989
|  6>  H      2.6689433583    -12.5206816458     -9.7630779093
|  7>  H      3.5186810052    -10.8617958199    -10.3401457481
|  8>  H      2.6446362585    -11.0164530154     -8.6943410554
|  9> *
| 10>
| 11> %EPRNMR
| 12>         GTENSOR   TRUE
| 13>         NUCLEI    = ALL H {AISO, ADIP, AORB}
| 14>         NUCLEI    = ALL C {AISO, ADIP, AORB}
| 15> END
| 16>
| 17>
| 18>                          ****END OF INPUT****

CARTESIAN COORDINATES (ANGSTROEM)
---------------------------------
  C      3.017618  -11.464282   -9.617038
  H      2.668943  -12.520682   -9.763078
  H      3.518681  -10.861796  -10.340146
  H      2.644636  -11.016453   -8.694341

 Total Charge           Charge          ....    0
 Multiplicity           Mult            ....    2
 Number of Electrons    NEL             ....    9
 Basis Dimension        Dim             ....   73

ORBITAL ENERGIES
----------------
                 SPIN UP ORBITALS
  NO   OCC          E(Eh)            E(eV)
   0   1.0000     -10.188246      -277.2363
   1   1.0000      -0.684533       -18.6271
   2   1.0000      -0.432570       -11.7708
   3   1.0000      -0.406733       -11.0678
   4   1.0000      -0.235557        -6.4098
   5   0.0000       0.000504         0.0137
   6   0.0000       0.035404         0.9634
   7   0.0000       0.038080         1.0362
   8   0.0000       0.047404         1.2899
   9   0.0000       0.084543         2.3005

                 SPIN DOWN ORBITALS
  NO   OCC          E(Eh)            E(eV)
   0   1.0000     -10.173721      -276.8410
   1   1.0000      -0.645068       -17.5532
   2   1.0000      -0.423243       -11.5170
   3   1.0000      -0.397297       -10.8110
   4   0.0000      -0.077648        -2.1129
   5   0.0000       0.003736         0.1016
   6   0.0000       0.035074         0.9544
   7   0.0000       0.037708         1.0261
   8   0.0000       0.060666         1.6508

MULLIKEN ATOMIC CHARGES AND SPIN POPULATIONS
--------------------------------------------
   0 C :   -0.426656    1.104280
   1 H :    0.140329   -0.036912
   2 H :    0.149166   -0.032208
   3 H :    0.137161   -0.035160
Sum of atomic charges         :   -0.0000000

LOEWDIN ATOMIC CHARGES AND SPIN POPULATIONS
-------------------------------------------
   0 C :   -0.160900    0.912957
   1 H :    0.067103    0.024322
   2 H :    0.041815    0.033286
   3 H :    0.051982    0.029434

  Mayer bond orders larger than 0.100000
B(  0-C ,  1-H ) :   0.9757 B(  0-C ,  2-H ) :   0.9751 B(  0-C ,  3-H ) :   0.9768

FINAL SINGLE POINT ENERGY       -39.826338613755

DIPOLE MOMENT
-------------
                                X             Y             Z
Electronic contribution:      0.12254       0.02186      -0.04990
Nuclear contribution   :     -0.16533      -0.00456       0.04013
                        -----------------------------------------
Total Dipole Moment    :     -0.04279       0.01729      -0.00976
                        -----------------------------------------
Magnitude (a.u.)       :      0.04717
Magnitude (Debye)      :      0.11991

Rotational constants in cm-1:     9.998216     8.720008     4.676376
Rotational constants in MHz : 299738.969400 261419.260656 140194.216255

                             ****ORCA TERMINATED NORMALLY****
TOTAL RUN TIME: 0 days 0 hours 0 minutes 20 seconds 886 msec
