                         Program Version 5.0.3 -  RELEASE  -
|  1> !B3LYP EPR-III Autoaux
|  2> !PAL4
|  3>
|  4> * xyz 0 2
|  5>  C    -73.6731625331    -98.6758022634    -28.8547657753
|  6>  H    -73.9513384965    -97.6236993708    -28.7763907690
|  7>  H    -74.4977240387    -99.4153277301    -28.9649820212
|  8>  H    -72.5553883315    -98.7725885099    -28.8319086757
|  9> *
| 10>
| 11> %EPRNMR
| 12>         GTENSOR   TRUE
| 13>         NUCLEI    = ALL H {AISO, ADIP, AORB}
| 14>         NUCLEI    = ALL C {AISO, ADIP, AORB}
| 15> END
| 16>
| 17>
| 18>                          ****END OF INPUT****

CARTESIAN COORDINATES (ANGSTROEM)
---------------------------------
  C    -73.673163  -98.675802  -28.854766
  H    -73.951338  -97.623699  -28.776391
  H    -74.497724  -99.415328  -28.964982
  H    -72.555388  -98.772589  -28.831909

 Total Charge           Charge          ....    0
 Multiplicity           Mult            ....    2
 Number of Electrons    NEL             ....    9
 Basis Dimension        Dim             ....   73

ORBITAL ENERGIES
----------------
                 SPIN UP ORBITALS
  NO   OCC          E(Eh)            E(eV)
   0   1.0000     -10.192723      -277.3581
   1   1.0000      -0.680826       -18.5262
   2   1.0000      -0.432098       -11.7580
   3   1.0000      -0.399408       -10.8684
   4   1.0000      -0.234894        -6.3918
   5   0.0000      -0.000343        -0.0093
   6   0.0000       0.034351         0.9347
   7   0.0000       0.038737         1.0541
   8   0.0000       0.047335         1.2881
   9   0.0000       0.076303         2.0763

                 SPIN DOWN ORBITALS
  NO   OCC          E(Eh)            E(eV)
   0   1.0000     -10.178114      -276.9606
   1   1.0000      -0.641182       -17.4475
   2   1.0000      -0.423321       -11.5191
   3   1.0000      -0.389706       -10.6044
   4   0.0000      -0.077098        -2.0979
   5   0.0000       0.003133         0.0853
   6   0.0000       0.034088         0.9276
   7   0.0000       0.038359         1.0438
   8   0.0000       0.060672         1.6510

MULLIKEN ATOMIC CHARGES AND SPIN POPULATIONS
--------------------------------------------
   0 C :   -0.432228    1.110320
   1 H :    0.133562   -0.036095
   2 H :    0.152202   -0.036085
   3 H :    0.146464   -0.038140
Sum of atomic charges         :   -0.0000000

LOEWDIN ATOMIC CHARGES AND SPIN POPULATIONS
-------------------------------------------
   0 C :   -0.177352    0.920475
   1 H :    0.047883    0.029888
   2 H :    0.063224    0.025480
   3 H :    0.066245    0.024157

  Mayer bond orders larger than 0.100000
B(  0-C ,  1-H ) :   0.9756 B(  0-C ,  2-H ) :   0.9716 B(  0-C ,  3-H ) :   0.9732

FINAL SINGLE POINT ENERGY       -39.822937257060

DIPOLE MOMENT
-------------
                                X             Y             Z
Electronic contribution:     -0.01599      -0.13585       0.00067
Nuclear contribution   :      0.01127       0.16173      -0.00673
                        -----------------------------------------
Total Dipole Moment    :     -0.00472       0.02588      -0.00606
                        -----------------------------------------
Magnitude (a.u.)       :      0.02700
Magnitude (Debye)      :      0.06862

Rotational constants in cm-1:    10.656157     7.902090     4.537957
Rotational constants in MHz : 319463.551322 236898.702787 136044.532799

                             ****ORCA TERMINATED NORMALLY****
TOTAL RUN TIME: 0 days 0 hours 0 minutes 26 seconds 47 msec
