                         Program Version 5.0.3 -  RELEASE  -
|  1> !B3LYP EPR-III Autoaux
|  2> !PAL4
|  3>
|  4> * xyz 0 2
|  5>  C    -48.1029745572    -69.0788209651    -22.6809383536
|  6>  H    -47.8986977814    -70.1262374615    -22.7298000508
|  7>  H    -47.3347176238    -68.4400999459    -22.6770522695
|  8>  H    -49.1715637978    -68.8481479194    -22.7104882447
|  9> *
| 10>
| 11> %EPRNMR
| 12>         GTENSOR   TRUE
| 13>         NUCLEI    = ALL H {AISO, ADIP, AORB}
| 14>         NUCLEI    = ALL C {AISO, ADIP, AORB}
| 15> END
| 16>
| 17>
| 18>                          ****END OF INPUT****

CARTESIAN COORDINATES (ANGSTROEM)
---------------------------------
  C    -48.102975  -69.078821  -22.680938
  H    -47.898698  -70.126237  -22.729800
  H    -47.334718  -68.440100  -22.677052
  H    -49.171564  -68.848148  -22.710488

 Total Charge           Charge          ....    0
 Multiplicity           Mult            ....    2
 Number of Electrons    NEL             ....    9
 Basis Dimension        Dim             ....   73

ORBITAL ENERGIES
----------------
                 SPIN UP ORBITALS
  NO   OCC          E(Eh)            E(eV)
   0   1.0000     -10.176012      -276.9034
   1   1.0000      -0.695949       -18.9377
   2   1.0000      -0.445925       -12.1342
   3   1.0000      -0.411166       -11.1884
   4   1.0000      -0.234976        -6.3940
   5   0.0000       0.001677         0.0456
   6   0.0000       0.035188         0.9575
   7   0.0000       0.038349         1.0435
   8   0.0000       0.047599         1.2952
   9   0.0000       0.088512         2.4085

                 SPIN DOWN ORBITALS
  NO   OCC          E(Eh)            E(eV)
   0   1.0000     -10.161717      -276.5144
   1   1.0000      -0.656798       -17.8724
   2   1.0000      -0.436093       -11.8667
   3   1.0000      -0.401469       -10.9245
   4   0.0000      -0.077747        -2.1156
   5   0.0000       0.004589         0.1249
   6   0.0000       0.034798         0.9469
   7   0.0000       0.037902         1.0314
   8   0.0000       0.060767         1.6536

MULLIKEN ATOMIC CHARGES AND SPIN POPULATIONS
--------------------------------------------
   0 C :   -0.429517    1.098490
   1 H :    0.135185   -0.034236
   2 H :    0.152772   -0.028680
   3 H :    0.141560   -0.035574
Sum of atomic charges         :    0.0000000

LOEWDIN ATOMIC CHARGES AND SPIN POPULATIONS
-------------------------------------------
   0 C :   -0.123100    0.895008
   1 H :    0.048660    0.032616
   2 H :    0.012137    0.044331
   3 H :    0.062304    0.028045

  Mayer bond orders larger than 0.100000
B(  0-C ,  1-H ) :   0.9821 B(  0-C ,  2-H ) :   0.9810 B(  0-C ,  3-H ) :   0.9808

FINAL SINGLE POINT ENERGY       -39.822445938635

DIPOLE MOMENT
-------------
                                X             Y             Z
Electronic contribution:      0.07419       0.12098       0.03558
Nuclear contribution   :     -0.07199      -0.13342      -0.05586
                        -----------------------------------------
Total Dipole Moment    :      0.00220      -0.01245      -0.02028
                        -----------------------------------------
Magnitude (a.u.)       :      0.02390
Magnitude (Debye)      :      0.06074

Rotational constants in cm-1:    10.756993     9.401810     5.020661
Rotational constants in MHz : 322486.532891 281859.169760 150515.632454

                             ****ORCA TERMINATED NORMALLY****
TOTAL RUN TIME: 0 days 0 hours 0 minutes 23 seconds 568 msec
