                         Program Version 5.0.3 -  RELEASE  -
|  1> !B3LYP EPR-III Autoaux
|  2> !PAL4
|  3>
|  4> * xyz 0 2
|  5>  C     -3.1710326162    -18.5337231526    -11.2065175928
|  6>  H     -2.6279761818    -17.6897784040    -10.8560563168
|  7>  H     -3.9841685407    -18.2566567972    -11.9657937496
|  8>  H     -2.9946164923    -19.5767327711    -10.8329515884
|  9> *
| 10>
| 11> %EPRNMR
| 12>         GTENSOR   TRUE
| 13>         NUCLEI    = ALL H {AISO, ADIP, AORB}
| 14>         NUCLEI    = ALL C {AISO, ADIP, AORB}
| 15> END
| 16>
| 17>
| 18>                          ****END OF INPUT****

CARTESIAN COORDINATES (ANGSTROEM)
---------------------------------
  C     -3.171033  -18.533723  -11.206518
  H     -2.627976  -17.689778  -10.856056
  H     -3.984169  -18.256657  -11.965794
  H     -2.994616  -19.576733  -10.832952

 Total Charge           Charge          ....    0
 Multiplicity           Mult            ....    2
 Number of Electrons    NEL             ....    9
 Basis Dimension        Dim             ....   73

ORBITAL ENERGIES
----------------
                 SPIN UP ORBITALS
  NO   OCC          E(Eh)            E(eV)
   0   1.0000     -10.193089      -277.3681
   1   1.0000      -0.680348       -18.5132
   2   1.0000      -0.426244       -11.5987
   3   1.0000      -0.405944       -11.0463
   4   1.0000      -0.234929        -6.3927
   5   0.0000      -0.000306        -0.0083
   6   0.0000       0.035485         0.9656
   7   0.0000       0.037752         1.0273
   8   0.0000       0.047332         1.2880
   9   0.0000       0.081420         2.2156

                 SPIN DOWN ORBITALS
  NO   OCC          E(Eh)            E(eV)
   0   1.0000     -10.178472      -276.9703
   1   1.0000      -0.640592       -17.4314
   2   1.0000      -0.417089       -11.3496
   3   1.0000      -0.396726       -10.7955
   4   0.0000      -0.077069        -2.0972
   5   0.0000       0.003179         0.0865
   6   0.0000       0.035204         0.9580
   7   0.0000       0.037417         1.0182
   8   0.0000       0.060672         1.6510

MULLIKEN ATOMIC CHARGES AND SPIN POPULATIONS
--------------------------------------------
   0 C :   -0.428087    1.109309
   1 H :    0.143758   -0.033725
   2 H :    0.136756   -0.039177
   3 H :    0.147574   -0.036407
Sum of atomic charges         :    0.0000000

LOEWDIN ATOMIC CHARGES AND SPIN POPULATIONS
-------------------------------------------
   0 C :   -0.174822    0.920578
   1 H :    0.035298    0.034348
   2 H :    0.073823    0.020769
   3 H :    0.065701    0.024305

  Mayer bond orders larger than 0.100000
B(  0-C ,  1-H ) :   0.9736 B(  0-C ,  2-H ) :   0.9740 B(  0-C ,  3-H ) :   0.9716

FINAL SINGLE POINT ENERGY       -39.823847778846

DIPOLE MOMENT
-------------
                                X             Y             Z
Electronic contribution:      0.06901      -0.04453       0.04022
Nuclear contribution   :     -0.07020       0.05846      -0.02642
                        -----------------------------------------
Total Dipole Moment    :     -0.00119       0.01393       0.01380
                        -----------------------------------------
Magnitude (a.u.)       :      0.01965
Magnitude (Debye)      :      0.04994

Rotational constants in cm-1:     9.997827     8.239467     4.518351
Rotational constants in MHz : 299727.307211 247012.992643 135456.757945

                             ****ORCA TERMINATED NORMALLY****
TOTAL RUN TIME: 0 days 0 hours 0 minutes 20 seconds 41 msec
