                         Program Version 5.0.3 -  RELEASE  -
|  1> !B3LYP EPR-III Autoaux
|  2> !PAL4
|  3>
|  4> * xyz 0 2
|  5>  C     11.8602466989     -1.4286350579     -7.3470912952
|  6>  H     11.2852134518     -0.5779053628     -7.2262227291
|  7>  H     11.9974690778     -2.2159151941     -6.6060006539
|  8>  H     12.3972275811     -1.4739670011     -8.2666184723
|  9> *
| 10>
| 11> %EPRNMR
| 12>         GTENSOR   TRUE
| 13>         NUCLEI    = ALL H {AISO, ADIP, AORB}
| 14>         NUCLEI    = ALL C {AISO, ADIP, AORB}
| 15> END
| 16>
| 17>
| 18>                          ****END OF INPUT****

CARTESIAN COORDINATES (ANGSTROEM)
---------------------------------
  C     11.860247   -1.428635   -7.347091
  H     11.285213   -0.577905   -7.226223
  H     11.997469   -2.215915   -6.606001
  H     12.397228   -1.473967   -8.266618

 Total Charge           Charge          ....    0
 Multiplicity           Mult            ....    2
 Number of Electrons    NEL             ....    9
 Basis Dimension        Dim             ....   73

ORBITAL ENERGIES
----------------
                 SPIN UP ORBITALS
  NO   OCC          E(Eh)            E(eV)
   0   1.0000     -10.178868      -276.9811
   1   1.0000      -0.692658       -18.8482
   2   1.0000      -0.434741       -11.8299
   3   1.0000      -0.417856       -11.3704
   4   1.0000      -0.234725        -6.3872
   5   0.0000       0.001481         0.0403
   6   0.0000       0.035846         0.9754
   7   0.0000       0.037759         1.0275
   8   0.0000       0.047579         1.2947
   9   0.0000       0.089592         2.4379

                 SPIN DOWN ORBITALS
  NO   OCC          E(Eh)            E(eV)
   0   1.0000     -10.164534      -276.5910
   1   1.0000      -0.653448       -17.7812
   2   1.0000      -0.425185       -11.5699
   3   1.0000      -0.408070       -11.1042
   4   0.0000      -0.077495        -2.1088
   5   0.0000       0.004468         0.1216
   6   0.0000       0.035463         0.9650
   7   0.0000       0.037316         1.0154
   8   0.0000       0.060790         1.6542

MULLIKEN ATOMIC CHARGES AND SPIN POPULATIONS
--------------------------------------------
   0 C :   -0.428143    1.099979
   1 H :    0.145868   -0.031605
   2 H :    0.144703   -0.034487
   3 H :    0.137572   -0.033887
Sum of atomic charges         :    0.0000000

LOEWDIN ATOMIC CHARGES AND SPIN POPULATIONS
-------------------------------------------
   0 C :   -0.134044    0.899657
   1 H :    0.029621    0.038416
   2 H :    0.058866    0.028765
   3 H :    0.045557    0.033162

  Mayer bond orders larger than 0.100000
B(  0-C ,  1-H ) :   0.9799 B(  0-C ,  2-H ) :   0.9788 B(  0-C ,  3-H ) :   0.9806

FINAL SINGLE POINT ENERGY       -39.826334770494

DIPOLE MOMENT
-------------
                                X             Y             Z
Electronic contribution:     -0.05896       0.00071       0.04093
Nuclear contribution   :      0.07433       0.01358      -0.04315
                        -----------------------------------------
Total Dipole Moment    :      0.01536       0.01429      -0.00222
                        -----------------------------------------
Magnitude (a.u.)       :      0.02110
Magnitude (Debye)      :      0.05362

Rotational constants in cm-1:    10.715600     9.127616     4.932024
Rotational constants in MHz : 321245.602752 273639.041404 147858.360006

                             ****ORCA TERMINATED NORMALLY****
TOTAL RUN TIME: 0 days 0 hours 0 minutes 24 seconds 264 msec
