                         Program Version 5.0.3 -  RELEASE  -
|  1> !B3LYP EPR-III Autoaux
|  2> !PAL4
|  3>
|  4> * xyz 0 2
|  5>  C    -23.6141232887    -41.6021787657    -16.4919951864
|  6>  H    -22.7838621038    -40.9880539548    -16.4687575086
|  7>  H    -24.6996108061    -41.3941236148    -16.2227950569
|  8>  H    -23.4957676791    -42.6301334205    -16.8603075672
|  9> *
| 10>
| 11> %EPRNMR
| 12>         GTENSOR   TRUE
| 13>         NUCLEI    = ALL H {AISO, ADIP, AORB}
| 14>         NUCLEI    = ALL C {AISO, ADIP, AORB}
| 15> END
| 16>
| 17>
| 18>                          ****END OF INPUT****

CARTESIAN COORDINATES (ANGSTROEM)
---------------------------------
  C    -23.614123  -41.602179  -16.491995
  H    -22.783862  -40.988054  -16.468758
  H    -24.699611  -41.394124  -16.222795
  H    -23.495768  -42.630133  -16.860308

 Total Charge           Charge          ....    0
 Multiplicity           Mult            ....    2
 Number of Electrons    NEL             ....    9
 Basis Dimension        Dim             ....   73

ORBITAL ENERGIES
----------------
                 SPIN UP ORBITALS
  NO   OCC          E(Eh)            E(eV)
   0   1.0000     -10.187092      -277.2049
   1   1.0000      -0.686456       -18.6794
   2   1.0000      -0.440916       -11.9979
   3   1.0000      -0.400019       -10.8851
   4   1.0000      -0.235081        -6.3969
   5   0.0000       0.000510         0.0139
   6   0.0000       0.034474         0.9381
   7   0.0000       0.038688         1.0527
   8   0.0000       0.047412         1.2901
   9   0.0000       0.080784         2.1982

                 SPIN DOWN ORBITALS
  NO   OCC          E(Eh)            E(eV)
   0   1.0000     -10.172590      -276.8102
   1   1.0000      -0.646922       -17.6037
   2   1.0000      -0.431546       -11.7430
   3   1.0000      -0.390593       -10.6286
   4   0.0000      -0.077442        -2.1073
   5   0.0000       0.003753         0.1021
   6   0.0000       0.034168         0.9298
   7   0.0000       0.038308         1.0424
   8   0.0000       0.060678         1.6511

MULLIKEN ATOMIC CHARGES AND SPIN POPULATIONS
--------------------------------------------
   0 C :   -0.430245    1.105972
   1 H :    0.153999   -0.030549
   2 H :    0.142889   -0.039021
   3 H :    0.133357   -0.036402
Sum of atomic charges         :   -0.0000000

LOEWDIN ATOMIC CHARGES AND SPIN POPULATIONS
-------------------------------------------
   0 C :   -0.156091    0.911314
   1 H :    0.025169    0.038874
   2 H :    0.075455    0.021499
   3 H :    0.055467    0.028313

  Mayer bond orders larger than 0.100000
B(  0-C ,  1-H ) :   0.9761 B(  0-C ,  2-H ) :   0.9757 B(  0-C ,  3-H ) :   0.9781

FINAL SINGLE POINT ENERGY       -39.822588983304

DIPOLE MOMENT
-------------
                                X             Y             Z
Electronic contribution:      0.10259       0.14034       0.04214
Nuclear contribution   :     -0.10258      -0.15422      -0.05687
                        -----------------------------------------
Total Dipole Moment    :      0.00001      -0.01389      -0.01473
                        -----------------------------------------
Magnitude (a.u.)       :      0.02024
Magnitude (Debye)      :      0.05145

Rotational constants in cm-1:    10.401452     8.552663     4.694242
Rotational constants in MHz : 311827.677779 256402.380457 140729.821612

                             ****ORCA TERMINATED NORMALLY****
TOTAL RUN TIME: 0 days 0 hours 0 minutes 29 seconds 795 msec
