                         Program Version 5.0.3 -  RELEASE  -
|  1> !B3LYP EPR-III Autoaux
|  2> !PAL4
|  3>
|  4> * xyz 0 2
|  5>  C     -4.6292179356    -20.1702144317    -11.5829183340
|  6>  H     -5.2578043330    -20.7754267067    -10.8422484004
|  7>  H     -3.7031763120    -20.5897803083    -11.8439388459
|  8>  H     -4.8953078249    -19.2956334474    -12.0986932926
|  9> *
| 10>
| 11> %EPRNMR
| 12>         GTENSOR   TRUE
| 13>         NUCLEI    = ALL H {AISO, ADIP, AORB}
| 14>         NUCLEI    = ALL C {AISO, ADIP, AORB}
| 15> END
| 16>
| 17>
| 18>                          ****END OF INPUT****

CARTESIAN COORDINATES (ANGSTROEM)
---------------------------------
  C     -4.629218  -20.170214  -11.582918
  H     -5.257804  -20.775427  -10.842248
  H     -3.703176  -20.589780  -11.843939
  H     -4.895308  -19.295633  -12.098693

 Total Charge           Charge          ....    0
 Multiplicity           Mult            ....    2
 Number of Electrons    NEL             ....    9
 Basis Dimension        Dim             ....   73

ORBITAL ENERGIES
----------------
                 SPIN UP ORBITALS
  NO   OCC          E(Eh)            E(eV)
   0   1.0000     -10.184486      -277.1340
   1   1.0000      -0.688954       -18.7474
   2   1.0000      -0.432004       -11.7554
   3   1.0000      -0.412223       -11.2172
   4   1.0000      -0.235074        -6.3967
   5   0.0000       0.000647         0.0176
   6   0.0000       0.035388         0.9629
   7   0.0000       0.037925         1.0320
   8   0.0000       0.047367         1.2889
   9   0.0000       0.081371         2.2142

                 SPIN DOWN ORBITALS
  NO   OCC          E(Eh)            E(eV)
   0   1.0000     -10.170077      -276.7419
   1   1.0000      -0.649698       -17.6792
   2   1.0000      -0.422616       -11.5000
   3   1.0000      -0.402585       -10.9549
   4   0.0000      -0.077585        -2.1112
   5   0.0000       0.003821         0.1040
   6   0.0000       0.035049         0.9537
   7   0.0000       0.037502         1.0205
   8   0.0000       0.060607         1.6492

MULLIKEN ATOMIC CHARGES AND SPIN POPULATIONS
--------------------------------------------
   0 C :   -0.429616    1.103070
   1 H :    0.142453   -0.038206
   2 H :    0.138932   -0.032864
   3 H :    0.148232   -0.032000
Sum of atomic charges         :   -0.0000000

LOEWDIN ATOMIC CHARGES AND SPIN POPULATIONS
-------------------------------------------
   0 C :   -0.148796    0.907222
   1 H :    0.079780    0.020500
   2 H :    0.033442    0.036329
   3 H :    0.035574    0.035949

  Mayer bond orders larger than 0.100000
B(  0-C ,  1-H ) :   0.9760 B(  0-C ,  2-H ) :   0.9783 B(  0-C ,  3-H ) :   0.9775

FINAL SINGLE POINT ENERGY       -39.823558287781

DIPOLE MOMENT
-------------
                                X             Y             Z
Electronic contribution:     -0.01491       0.09474      -0.00054
Nuclear contribution   :      0.02351      -0.11257      -0.02708
                        -----------------------------------------
Total Dipole Moment    :      0.00860      -0.01783      -0.02762
                        -----------------------------------------
Magnitude (a.u.)       :      0.03398
Magnitude (Debye)      :      0.08637

Rotational constants in cm-1:    10.836815     8.485717     4.765352
Rotational constants in MHz : 324879.537564 254395.382890 142861.654250

                             ****ORCA TERMINATED NORMALLY****
TOTAL RUN TIME: 0 days 0 hours 0 minutes 20 seconds 924 msec
