                         Program Version 5.0.3 -  RELEASE  -
|  1> !B3LYP EPR-III Autoaux
|  2> !PAL4
|  3>
|  4> * xyz 0 2
|  5>  C    -94.0676862616   -123.9546611336    -33.4880006357
|  6>  H    -92.9874913778   -123.6128266496    -33.4199050225
|  7>  H    -94.7970084348   -123.1271546250    -33.4748354493
|  8>  H    -94.4148038282   -124.9887282201    -33.5807511214
|  9> *
| 10>
| 11> %EPRNMR
| 12>         GTENSOR   TRUE
| 13>         NUCLEI    = ALL H {AISO, ADIP, AORB}
| 14>         NUCLEI    = ALL C {AISO, ADIP, AORB}
| 15> END
| 16>
| 17>
| 18>                          ****END OF INPUT****

CARTESIAN COORDINATES (ANGSTROEM)
---------------------------------
  C    -94.067686  -123.954661  -33.488001
  H    -92.987491  -123.612827  -33.419905
  H    -94.797008  -123.127155  -33.474835
  H    -94.414804  -124.988728  -33.580751

 Total Charge           Charge          ....    0
 Multiplicity           Mult            ....    2
 Number of Electrons    NEL             ....    9
 Basis Dimension        Dim             ....   73

ORBITAL ENERGIES
----------------
                 SPIN UP ORBITALS
  NO   OCC          E(Eh)            E(eV)
   0   1.0000     -10.193380      -277.3760
   1   1.0000      -0.679548       -18.4914
   2   1.0000      -0.426820       -11.6143
   3   1.0000      -0.405392       -11.0313
   4   1.0000      -0.234848        -6.3905
   5   0.0000      -0.000192        -0.0052
   6   0.0000       0.035393         0.9631
   7   0.0000       0.037865         1.0304
   8   0.0000       0.047336         1.2881
   9   0.0000       0.081942         2.2298

                 SPIN DOWN ORBITALS
  NO   OCC          E(Eh)            E(eV)
   0   1.0000     -10.178765      -276.9783
   1   1.0000      -0.639742       -17.4083
   2   1.0000      -0.417788       -11.3686
   3   1.0000      -0.396127       -10.7792
   4   0.0000      -0.077028        -2.0960
   5   0.0000       0.003277         0.0892
   6   0.0000       0.035097         0.9550
   7   0.0000       0.037522         1.0210
   8   0.0000       0.060683         1.6513

MULLIKEN ATOMIC CHARGES AND SPIN POPULATIONS
--------------------------------------------
   0 C :   -0.427985    1.109293
   1 H :    0.141371   -0.038294
   2 H :    0.137926   -0.036307
   3 H :    0.148687   -0.034691
Sum of atomic charges         :    0.0000000

LOEWDIN ATOMIC CHARGES AND SPIN POPULATIONS
-------------------------------------------
   0 C :   -0.176730    0.921073
   1 H :    0.069745    0.022406
   2 H :    0.054195    0.027760
   3 H :    0.052790    0.028762

  Mayer bond orders larger than 0.100000
B(  0-C ,  1-H ) :   0.9729 B(  0-C ,  2-H ) :   0.9742 B(  0-C ,  3-H ) :   0.9721

FINAL SINGLE POINT ENERGY       -39.825475039234

DIPOLE MOMENT
-------------
                                X             Y             Z
Electronic contribution:     -0.00975      -0.09275       0.00314
Nuclear contribution   :      0.00281       0.10139      -0.00861
                        -----------------------------------------
Total Dipole Moment    :     -0.00694       0.00864      -0.00547
                        -----------------------------------------
Magnitude (a.u.)       :      0.01236
Magnitude (Debye)      :      0.03141

Rotational constants in cm-1:     9.737688     8.425164     4.517277
Rotational constants in MHz : 291928.534037 252580.050632 135424.550861

                             ****ORCA TERMINATED NORMALLY****
TOTAL RUN TIME: 0 days 0 hours 0 minutes 18 seconds 712 msec
