                         Program Version 5.0.3 -  RELEASE  -
|  1> !B3LYP EPR-III Autoaux
|  2> !PAL4
|  3>
|  4> * xyz 0 2
|  5>  C    -66.7121722774    -90.2438279187    -27.2522534367
|  6>  H    -67.3743482591    -89.3878397988    -27.1938090848
|  7>  H    -67.2472517351    -91.1015185683    -27.3615127277
|  8>  H    -65.6525071168    -90.0872816782    -27.2122411367
|  9> *
| 10>
| 11> %EPRNMR
| 12>         GTENSOR   TRUE
| 13>         NUCLEI    = ALL H {AISO, ADIP, AORB}
| 14>         NUCLEI    = ALL C {AISO, ADIP, AORB}
| 15> END
| 16>
| 17>
| 18>                          ****END OF INPUT****

CARTESIAN COORDINATES (ANGSTROEM)
---------------------------------
  C    -66.712172  -90.243828  -27.252253
  H    -67.374348  -89.387840  -27.193809
  H    -67.247252  -91.101519  -27.361513
  H    -65.652507  -90.087282  -27.212241

 Total Charge           Charge          ....    0
 Multiplicity           Mult            ....    2
 Number of Electrons    NEL             ....    9
 Basis Dimension        Dim             ....   73

ORBITAL ENERGIES
----------------
                 SPIN UP ORBITALS
  NO   OCC          E(Eh)            E(eV)
   0   1.0000     -10.177258      -276.9373
   1   1.0000      -0.694878       -18.9086
   2   1.0000      -0.445500       -12.1227
   3   1.0000      -0.409164       -11.1339
   4   1.0000      -0.234827        -6.3900
   5   0.0000       0.001565         0.0426
   6   0.0000       0.034942         0.9508
   7   0.0000       0.038529         1.0484
   8   0.0000       0.047586         1.2949
   9   0.0000       0.088938         2.4201

                 SPIN DOWN ORBITALS
  NO   OCC          E(Eh)            E(eV)
   0   1.0000     -10.162949      -276.5479
   1   1.0000      -0.655741       -17.8436
   2   1.0000      -0.435865       -11.8605
   3   1.0000      -0.399306       -10.8657
   4   0.0000      -0.077652        -2.1130
   5   0.0000       0.004509         0.1227
   6   0.0000       0.034566         0.9406
   7   0.0000       0.038071         1.0360
   8   0.0000       0.060770         1.6536

MULLIKEN ATOMIC CHARGES AND SPIN POPULATIONS
--------------------------------------------
   0 C :   -0.430177    1.099951
   1 H :    0.131958   -0.035473
   2 H :    0.148748   -0.031294
   3 H :    0.149470   -0.033184
Sum of atomic charges         :   -0.0000000

LOEWDIN ATOMIC CHARGES AND SPIN POPULATIONS
-------------------------------------------
   0 C :   -0.128805    0.897118
   1 H :    0.055094    0.030235
   2 H :    0.021493    0.041243
   3 H :    0.052217    0.031404

  Mayer bond orders larger than 0.100000
B(  0-C ,  1-H ) :   0.9823 B(  0-C ,  2-H ) :   0.9810 B(  0-C ,  3-H ) :   0.9795

FINAL SINGLE POINT ENERGY       -39.823319787774

DIPOLE MOMENT
-------------
                                X             Y             Z
Electronic contribution:      0.09005      -0.11129       0.00171
Nuclear contribution   :     -0.10312       0.11605      -0.00810
                        -----------------------------------------
Total Dipole Moment    :     -0.01307       0.00476      -0.00638
                        -----------------------------------------
Magnitude (a.u.)       :      0.01531
Magnitude (Debye)      :      0.03891

Rotational constants in cm-1:    11.190672     8.989939     4.985537
Rotational constants in MHz : 335487.912699 269511.602656 149462.632452

                             ****ORCA TERMINATED NORMALLY****
TOTAL RUN TIME: 0 days 0 hours 0 minutes 21 seconds 122 msec
