                         Program Version 5.0.3 -  RELEASE  -
|  1> !B3LYP EPR-III Autoaux
|  2> !PAL4
|  3>
|  4> * xyz 0 2
|  5>  C    -19.4903631178    -36.9483454462    -15.4225293105
|  6>  H    -20.1777772583    -36.2568283464    -15.7466727986
|  7>  H    -19.6843872337    -38.0499577466    -15.5337715507
|  8>  H    -18.5454012872    -36.4994872120    -15.0628128681
|  9> *
| 10>
| 11> %EPRNMR
| 12>         GTENSOR   TRUE
| 13>         NUCLEI    = ALL H {AISO, ADIP, AORB}
| 14>         NUCLEI    = ALL C {AISO, ADIP, AORB}
| 15> END
| 16>
| 17>
| 18>                          ****END OF INPUT****

CARTESIAN COORDINATES (ANGSTROEM)
---------------------------------
  C    -19.490363  -36.948345  -15.422529
  H    -20.177777  -36.256828  -15.746673
  H    -19.684387  -38.049958  -15.533772
  H    -18.545401  -36.499487  -15.062813

 Total Charge           Charge          ....    0
 Multiplicity           Mult            ....    2
 Number of Electrons    NEL             ....    9
 Basis Dimension        Dim             ....   73

ORBITAL ENERGIES
----------------
                 SPIN UP ORBITALS
  NO   OCC          E(Eh)            E(eV)
   0   1.0000     -10.185620      -277.1648
   1   1.0000      -0.687428       -18.7059
   2   1.0000      -0.425775       -11.5859
   3   1.0000      -0.416257       -11.3269
   4   1.0000      -0.234952        -6.3934
   5   0.0000       0.000586         0.0159
   6   0.0000       0.035853         0.9756
   7   0.0000       0.037598         1.0231
   8   0.0000       0.047457         1.2914
   9   0.0000       0.083265         2.2657

                 SPIN DOWN ORBITALS
  NO   OCC          E(Eh)            E(eV)
   0   1.0000     -10.171145      -276.7709
   1   1.0000      -0.648062       -17.6347
   2   1.0000      -0.416454       -11.3323
   3   1.0000      -0.406597       -11.0641
   4   0.0000      -0.077342        -2.1046
   5   0.0000       0.003803         0.1035
   6   0.0000       0.035543         0.9672
   7   0.0000       0.037197         1.0122
   8   0.0000       0.060725         1.6524

MULLIKEN ATOMIC CHARGES AND SPIN POPULATIONS
--------------------------------------------
   0 C :   -0.428601    1.104348
   1 H :    0.144001   -0.031560
   2 H :    0.144747   -0.036560
   3 H :    0.139853   -0.036228
Sum of atomic charges         :    0.0000000

LOEWDIN ATOMIC CHARGES AND SPIN POPULATIONS
-------------------------------------------
   0 C :   -0.152873    0.909487
   1 H :    0.020543    0.040173
   2 H :    0.070617    0.023635
   3 H :    0.061713    0.026706

  Mayer bond orders larger than 0.100000
B(  0-C ,  1-H ) :   0.9769 B(  0-C ,  2-H ) :   0.9753 B(  0-C ,  3-H ) :   0.9773

FINAL SINGLE POINT ENERGY       -39.824047313901

DIPOLE MOMENT
-------------
                                X             Y             Z
Electronic contribution:     -0.04809      -0.01365       0.02767
Nuclear contribution   :      0.04761       0.02905      -0.05671
                        -----------------------------------------
Total Dipole Moment    :     -0.00049       0.01540      -0.02904
                        -----------------------------------------
Magnitude (a.u.)       :      0.03288
Magnitude (Debye)      :      0.08356

Rotational constants in cm-1:    10.719770     8.426356     4.724148
Rotational constants in MHz : 321370.626441 252615.795296 141626.393429

                             ****ORCA TERMINATED NORMALLY****
TOTAL RUN TIME: 0 days 0 hours 0 minutes 19 seconds 865 msec
