                         Program Version 5.0.3 -  RELEASE  -
|  1> !B3LYP EPR-III Autoaux
|  2> !PAL4
|  3>
|  4> * xyz 0 2
|  5>  C    -83.5274013613   -110.7363686313    -31.2353469369
|  6>  H    -84.2053180829   -111.5366307672    -31.3301948975
|  7>  H    -82.5209607614   -110.9446164614    -31.2106756608
|  8>  H    -84.0175596782   -109.7749543542    -31.1786107728
|  9> *
| 10>
| 11> %EPRNMR
| 12>         GTENSOR   TRUE
| 13>         NUCLEI    = ALL H {AISO, ADIP, AORB}
| 14>         NUCLEI    = ALL C {AISO, ADIP, AORB}
| 15> END
| 16>
| 17>
| 18>                          ****END OF INPUT****

CARTESIAN COORDINATES (ANGSTROEM)
---------------------------------
  C    -83.527401  -110.736369  -31.235347
  H    -84.205318  -111.536631  -31.330195
  H    -82.520961  -110.944616  -31.210676
  H    -84.017560  -109.774954  -31.178611

 Total Charge           Charge          ....    0
 Multiplicity           Mult            ....    2
 Number of Electrons    NEL             ....    9
 Basis Dimension        Dim             ....   73

ORBITAL ENERGIES
----------------
                 SPIN UP ORBITALS
  NO   OCC          E(Eh)            E(eV)
   0   1.0000     -10.176092      -276.9055
   1   1.0000      -0.695269       -18.9192
   2   1.0000      -0.443053       -12.0561
   3   1.0000      -0.413701       -11.2574
   4   1.0000      -0.234695        -6.3864
   5   0.0000       0.001712         0.0466
   6   0.0000       0.035281         0.9600
   7   0.0000       0.038284         1.0418
   8   0.0000       0.047617         1.2957
   9   0.0000       0.089006         2.4220

                 SPIN DOWN ORBITALS
  NO   OCC          E(Eh)            E(eV)
   0   1.0000     -10.161808      -276.5169
   1   1.0000      -0.656118       -17.8539
   2   1.0000      -0.433424       -11.7941
   3   1.0000      -0.403823       -10.9886
   4   0.0000      -0.077602        -2.1117
   5   0.0000       0.004628         0.1259
   6   0.0000       0.034883         0.9492
   7   0.0000       0.037824         1.0292
   8   0.0000       0.060799         1.6544

MULLIKEN ATOMIC CHARGES AND SPIN POPULATIONS
--------------------------------------------
   0 C :   -0.429320    1.098794
   1 H :    0.136519   -0.033418
   2 H :    0.150191   -0.030521
   3 H :    0.142610   -0.034855
Sum of atomic charges         :   -0.0000000

LOEWDIN ATOMIC CHARGES AND SPIN POPULATIONS
-------------------------------------------
   0 C :   -0.125787    0.895557
   1 H :    0.040650    0.035217
   2 H :    0.029076    0.039052
   3 H :    0.056061    0.030174

  Mayer bond orders larger than 0.100000
B(  0-C ,  1-H ) :   0.9819 B(  0-C ,  2-H ) :   0.9809 B(  0-C ,  3-H ) :   0.9810

FINAL SINGLE POINT ENERGY       -39.824925304750

DIPOLE MOMENT
-------------
                                X             Y             Z
Electronic contribution:      0.10951       0.02405       0.00785
Nuclear contribution   :     -0.12114      -0.03530      -0.01007
                        -----------------------------------------
Total Dipole Moment    :     -0.01164      -0.01125      -0.00222
                        -----------------------------------------
Magnitude (a.u.)       :      0.01634
Magnitude (Debye)      :      0.04153

Rotational constants in cm-1:    10.974084     9.250811     5.019522
Rotational constants in MHz : 328994.769438 277332.341190 150481.477689

                             ****ORCA TERMINATED NORMALLY****
TOTAL RUN TIME: 0 days 0 hours 0 minutes 22 seconds 527 msec
