                         Program Version 5.0.3 -  RELEASE  -
|  1> !B3LYP EPR-III Autoaux
|  2> !PAL4
|  3>
|  4> * xyz 0 2
|  5>  C    -88.7558254172   -117.1795535509    -32.3958412587
|  6>  H    -89.3996556036   -116.2782329384    -32.3483261569
|  7>  H    -89.2475225245   -118.1867679116    -32.5044296265
|  8>  H    -87.6419664978   -117.2796376437    -32.3512304118
|  9> *
| 10>
| 11> %EPRNMR
| 12>         GTENSOR   TRUE
| 13>         NUCLEI    = ALL H {AISO, ADIP, AORB}
| 14>         NUCLEI    = ALL C {AISO, ADIP, AORB}
| 15> END
| 16>
| 17>
| 18>                          ****END OF INPUT****

CARTESIAN COORDINATES (ANGSTROEM)
---------------------------------
  C    -88.755825  -117.179554  -32.395841
  H    -89.399656  -116.278233  -32.348326
  H    -89.247523  -118.186768  -32.504430
  H    -87.641966  -117.279638  -32.351230

 Total Charge           Charge          ....    0
 Multiplicity           Mult            ....    2
 Number of Electrons    NEL             ....    9
 Basis Dimension        Dim             ....   73

ORBITAL ENERGIES
----------------
                 SPIN UP ORBITALS
  NO   OCC          E(Eh)            E(eV)
   0   1.0000     -10.195563      -277.4354
   1   1.0000      -0.677891       -18.4464
   2   1.0000      -0.430425       -11.7125
   3   1.0000      -0.398284       -10.8379
   4   1.0000      -0.234963        -6.3937
   5   0.0000      -0.000563        -0.0153
   6   0.0000       0.034648         0.9428
   7   0.0000       0.038449         1.0462
   8   0.0000       0.047286         1.2867
   9   0.0000       0.078823         2.1449

                 SPIN DOWN ORBITALS
  NO   OCC          E(Eh)            E(eV)
   0   1.0000     -10.180901      -277.0364
   1   1.0000      -0.638023       -17.3615
   2   1.0000      -0.421572       -11.4716
   3   1.0000      -0.388959       -10.5841
   4   0.0000      -0.077027        -2.0960
   5   0.0000       0.002999         0.0816
   6   0.0000       0.034381         0.9356
   7   0.0000       0.038108         1.0370
   8   0.0000       0.060649         1.6503

MULLIKEN ATOMIC CHARGES AND SPIN POPULATIONS
--------------------------------------------
   0 C :   -0.430236    1.111403
   1 H :    0.151447   -0.035657
   2 H :    0.132977   -0.038112
   3 H :    0.145812   -0.037634
Sum of atomic charges         :    0.0000000

LOEWDIN ATOMIC CHARGES AND SPIN POPULATIONS
-------------------------------------------
   0 C :   -0.183997    0.924400
   1 H :    0.059048    0.026432
   2 H :    0.062291    0.024311
   3 H :    0.062658    0.024857

  Mayer bond orders larger than 0.100000
B(  0-C ,  1-H ) :   0.9704 B(  0-C ,  2-H ) :   0.9743 B(  0-C ,  3-H ) :   0.9718

FINAL SINGLE POINT ENERGY       -39.823494024575

DIPOLE MOMENT
-------------
                                X             Y             Z
Electronic contribution:      0.01329       0.14160       0.01169
Nuclear contribution   :     -0.01624      -0.15438      -0.01234
                        -----------------------------------------
Total Dipole Moment    :     -0.00295      -0.01278      -0.00065
                        -----------------------------------------
Magnitude (a.u.)       :      0.01313
Magnitude (Debye)      :      0.03337

Rotational constants in cm-1:     9.946706     8.096202     4.463282
Rotational constants in MHz : 298194.756099 242718.020296 133805.840914

                             ****ORCA TERMINATED NORMALLY****
TOTAL RUN TIME: 0 days 0 hours 0 minutes 17 seconds 163 msec
