                         Program Version 5.0.3 -  RELEASE  -
|  1> !B3LYP EPR-III Autoaux
|  2> !PAL4
|  3>
|  4> * xyz 0 2
|  5>  C    -28.8841503760    -47.5394195895    -17.8475879714
|  6>  H    -27.8035726537    -47.8094368951    -17.6420817636
|  7>  H    -29.0245602217    -46.5308247655    -17.6899324827
|  8>  H    -29.6616444593    -48.2668381137    -18.0653176486
|  9> *
| 10>
| 11> %EPRNMR
| 12>         GTENSOR   TRUE
| 13>         NUCLEI    = ALL H {AISO, ADIP, AORB}
| 14>         NUCLEI    = ALL C {AISO, ADIP, AORB}
| 15> END
| 16>
| 17>
| 18>                          ****END OF INPUT****

CARTESIAN COORDINATES (ANGSTROEM)
---------------------------------
  C    -28.884150  -47.539420  -17.847588
  H    -27.803573  -47.809437  -17.642082
  H    -29.024560  -46.530825  -17.689932
  H    -29.661644  -48.266838  -18.065318

 Total Charge           Charge          ....    0
 Multiplicity           Mult            ....    2
 Number of Electrons    NEL             ....    9
 Basis Dimension        Dim             ....   73

ORBITAL ENERGIES
----------------
                 SPIN UP ORBITALS
  NO   OCC          E(Eh)            E(eV)
   0   1.0000     -10.185074      -277.1500
   1   1.0000      -0.688249       -18.7282
   2   1.0000      -0.438770       -11.9395
   3   1.0000      -0.404482       -11.0065
   4   1.0000      -0.235246        -6.4014
   5   0.0000       0.000687         0.0187
   6   0.0000       0.035005         0.9525
   7   0.0000       0.038378         1.0443
   8   0.0000       0.047445         1.2910
   9   0.0000       0.084725         2.3055

                 SPIN DOWN ORBITALS
  NO   OCC          E(Eh)            E(eV)
   0   1.0000     -10.170607      -276.7563
   1   1.0000      -0.648897       -17.6574
   2   1.0000      -0.429282       -11.6813
   3   1.0000      -0.394950       -10.7471
   4   0.0000      -0.077580        -2.1111
   5   0.0000       0.003859         0.1050
   6   0.0000       0.034676         0.9436
   7   0.0000       0.037989         1.0337
   8   0.0000       0.060686         1.6514

MULLIKEN ATOMIC CHARGES AND SPIN POPULATIONS
--------------------------------------------
   0 C :   -0.429115    1.104050
   1 H :    0.133277   -0.038453
   2 H :    0.145571   -0.032096
   3 H :    0.150267   -0.033501
Sum of atomic charges         :    0.0000000

LOEWDIN ATOMIC CHARGES AND SPIN POPULATIONS
-------------------------------------------
   0 C :   -0.150462    0.908384
   1 H :    0.072500    0.022674
   2 H :    0.023147    0.039465
   3 H :    0.054815    0.029477

  Mayer bond orders larger than 0.100000
B(  0-C ,  1-H ) :   0.9787 B(  0-C ,  2-H ) :   0.9774 B(  0-C ,  3-H ) :   0.9757

FINAL SINGLE POINT ENERGY       -39.823148798009

DIPOLE MOMENT
-------------
                                X             Y             Z
Electronic contribution:     -0.12772       0.00408      -0.07639
Nuclear contribution   :      0.12192       0.00836       0.10900
                        -----------------------------------------
Total Dipole Moment    :     -0.00580       0.01245       0.03261
                        -----------------------------------------
Magnitude (a.u.)       :      0.03538
Magnitude (Debye)      :      0.08994

Rotational constants in cm-1:    10.775479     8.473738     4.752053
Rotational constants in MHz : 323040.742339 254036.269559 142462.968632

                             ****ORCA TERMINATED NORMALLY****
TOTAL RUN TIME: 0 days 0 hours 0 minutes 23 seconds 503 msec
