                         Program Version 5.0.3 -  RELEASE  -
|  1> !B3LYP EPR-III Autoaux
|  2> !PAL4
|  3>
|  4> * xyz 0 2
|  5>  C      5.3215141875     -8.8163701434     -9.0014686258
|  6>  H      4.4989294335     -9.0690087018     -9.6210295466
|  7>  H      5.8049523893     -9.3907566721     -8.1254651677
|  8>  H      5.8665245213     -7.9312432280     -9.3730053003
|  9> *
| 10>
| 11> %EPRNMR
| 12>         GTENSOR   TRUE
| 13>         NUCLEI    = ALL H {AISO, ADIP, AORB}
| 14>         NUCLEI    = ALL C {AISO, ADIP, AORB}
| 15> END
| 16>
| 17>
| 18>                          ****END OF INPUT****

CARTESIAN COORDINATES (ANGSTROEM)
---------------------------------
  C      5.321514   -8.816370   -9.001469
  H      4.498929   -9.069009   -9.621030
  H      5.804952   -9.390757   -8.125465
  H      5.866525   -7.931243   -9.373005

 Total Charge           Charge          ....    0
 Multiplicity           Mult            ....    2
 Number of Electrons    NEL             ....    9
 Basis Dimension        Dim             ....   73

ORBITAL ENERGIES
----------------
                 SPIN UP ORBITALS
  NO   OCC          E(Eh)            E(eV)
   0   1.0000     -10.191848      -277.3343
   1   1.0000      -0.682233       -18.5645
   2   1.0000      -0.430256       -11.7079
   3   1.0000      -0.402556       -10.9541
   4   1.0000      -0.235570        -6.4102
   5   0.0000      -0.000224        -0.0061
   6   0.0000       0.034832         0.9478
   7   0.0000       0.038360         1.0438
   8   0.0000       0.047325         1.2878
   9   0.0000       0.077927         2.1205

                 SPIN DOWN ORBITALS
  NO   OCC          E(Eh)            E(eV)
   0   1.0000     -10.177240      -276.9368
   1   1.0000      -0.642721       -17.4893
   2   1.0000      -0.421138       -11.4598
   3   1.0000      -0.393030       -10.6949
   4   0.0000      -0.077499        -2.1089
   5   0.0000       0.003193         0.0869
   6   0.0000       0.034596         0.9414
   7   0.0000       0.037995         1.0339
   8   0.0000       0.060615         1.6494

MULLIKEN ATOMIC CHARGES AND SPIN POPULATIONS
--------------------------------------------
   0 C :   -0.429296    1.107773
   1 H :    0.149083   -0.032963
   2 H :    0.147182   -0.038552
   3 H :    0.133032   -0.036258
Sum of atomic charges         :   -0.0000000

LOEWDIN ATOMIC CHARGES AND SPIN POPULATIONS
-------------------------------------------
   0 C :   -0.171783    0.918483
   1 H :    0.036493    0.034527
   2 H :    0.080329    0.019260
   3 H :    0.054961    0.027730

  Mayer bond orders larger than 0.100000
B(  0-C ,  1-H ) :   0.9741 B(  0-C ,  2-H ) :   0.9716 B(  0-C ,  3-H ) :   0.9762

FINAL SINGLE POINT ENERGY       -39.822337149396

DIPOLE MOMENT
-------------
                                X             Y             Z
Electronic contribution:     -0.12635      -0.05277       0.05011
Nuclear contribution   :      0.15429       0.04355      -0.08626
                        -----------------------------------------
Total Dipole Moment    :      0.02794      -0.00922      -0.03615
                        -----------------------------------------
Magnitude (a.u.)       :      0.04661
Magnitude (Debye)      :      0.11847

Rotational constants in cm-1:    10.416605     8.075936     4.564995
Rotational constants in MHz : 312281.962309 242110.466868 136855.118942

                             ****ORCA TERMINATED NORMALLY****
TOTAL RUN TIME: 0 days 0 hours 0 minutes 22 seconds 192 msec
