                         Program Version 5.0.3 -  RELEASE  -
|  1> !B3LYP EPR-III Autoaux
|  2> !PAL4
|  3>
|  4> * xyz 0 2
|  5>  C     -9.7879232659    -26.0318604462    -12.9350096649
|  6>  H     -9.2345784785    -25.4765792881    -12.1786922602
|  7>  H    -10.7516715549    -25.7622675627    -13.3839153779
|  8>  H     -9.4517424664    -27.0191254101    -13.1866019943
|  9> *
| 10>
| 11> %EPRNMR
| 12>         GTENSOR   TRUE
| 13>         NUCLEI    = ALL H {AISO, ADIP, AORB}
| 14>         NUCLEI    = ALL C {AISO, ADIP, AORB}
| 15> END
| 16>
| 17>
| 18>                          ****END OF INPUT****

CARTESIAN COORDINATES (ANGSTROEM)
---------------------------------
  C     -9.787923  -26.031860  -12.935010
  H     -9.234578  -25.476579  -12.178692
  H    -10.751672  -25.762268  -13.383915
  H     -9.451742  -27.019125  -13.186602

 Total Charge           Charge          ....    0
 Multiplicity           Mult            ....    2
 Number of Electrons    NEL             ....    9
 Basis Dimension        Dim             ....   73

ORBITAL ENERGIES
----------------
                 SPIN UP ORBITALS
  NO   OCC          E(Eh)            E(eV)
   0   1.0000     -10.186087      -277.1775
   1   1.0000      -0.686243       -18.6736
   2   1.0000      -0.430398       -11.7117
   3   1.0000      -0.411590       -11.1999
   4   1.0000      -0.235289        -6.4025
   5   0.0000       0.000743         0.0202
   6   0.0000       0.035558         0.9676
   7   0.0000       0.037982         1.0335
   8   0.0000       0.047454         1.2913
   9   0.0000       0.085137         2.3167

                 SPIN DOWN ORBITALS
  NO   OCC          E(Eh)            E(eV)
   0   1.0000     -10.171610      -276.7836
   1   1.0000      -0.646876       -17.6024
   2   1.0000      -0.421197       -11.4613
   3   1.0000      -0.401873       -10.9355
   4   0.0000      -0.077567        -2.1107
   5   0.0000       0.003914         0.1065
   6   0.0000       0.035220         0.9584
   7   0.0000       0.037579         1.0226
   8   0.0000       0.060708         1.6519

MULLIKEN ATOMIC CHARGES AND SPIN POPULATIONS
--------------------------------------------
   0 C :   -0.427185    1.103388
   1 H :    0.146756   -0.034051
   2 H :    0.143149   -0.035209
   3 H :    0.137280   -0.034128
Sum of atomic charges         :   -0.0000000

LOEWDIN ATOMIC CHARGES AND SPIN POPULATIONS
-------------------------------------------
   0 C :   -0.155962    0.910085
   1 H :    0.054454    0.029312
   2 H :    0.057429    0.028178
   3 H :    0.044079    0.032426

  Mayer bond orders larger than 0.100000
B(  0-C ,  1-H ) :   0.9759 B(  0-C ,  2-H ) :   0.9766 B(  0-C ,  3-H ) :   0.9777

FINAL SINGLE POINT ENERGY       -39.827170720644

DIPOLE MOMENT
-------------
                                X             Y             Z
Electronic contribution:      0.03784       0.09082      -0.01579
Nuclear contribution   :     -0.05563      -0.12171       0.04184
                        -----------------------------------------
Total Dipole Moment    :     -0.01779      -0.03089       0.02604
                        -----------------------------------------
Magnitude (a.u.)       :      0.04415
Magnitude (Debye)      :      0.11222

Rotational constants in cm-1:    10.357794     8.667925     4.734396
Rotational constants in MHz : 310518.856449 259857.860815 141933.617771

                             ****ORCA TERMINATED NORMALLY****
TOTAL RUN TIME: 0 days 0 hours 0 minutes 20 seconds 1 msec
