                         Program Version 5.0.3 -  RELEASE  -
|  1> !B3LYP EPR-III Autoaux
|  2> !PAL4
|  3>
|  4> * xyz 0 2
|  5>  C      6.6731146939     -7.2834351693     -8.6394919178
|  6>  H      6.6779778474     -8.2377069428     -8.2136436256
|  7>  H      7.3524755364     -6.4154043641     -8.4222520972
|  8>  H      6.0632709903     -7.2643626719     -9.5439975145
|  9> *
| 10>
| 11> %EPRNMR
| 12>         GTENSOR   TRUE
| 13>         NUCLEI    = ALL H {AISO, ADIP, AORB}
| 14>         NUCLEI    = ALL C {AISO, ADIP, AORB}
| 15> END
| 16>
| 17>
| 18>                          ****END OF INPUT****

CARTESIAN COORDINATES (ANGSTROEM)
---------------------------------
  C      6.673115   -7.283435   -8.639492
  H      6.677978   -8.237707   -8.213644
  H      7.352476   -6.415404   -8.422252
  H      6.063271   -7.264363   -9.543998

 Total Charge           Charge          ....    0
 Multiplicity           Mult            ....    2
 Number of Electrons    NEL             ....    9
 Basis Dimension        Dim             ....   73

ORBITAL ENERGIES
----------------
                 SPIN UP ORBITALS
  NO   OCC          E(Eh)            E(eV)
   0   1.0000     -10.186451      -277.1874
   1   1.0000      -0.687467       -18.7069
   2   1.0000      -0.433353       -11.7921
   3   1.0000      -0.407449       -11.0873
   4   1.0000      -0.236340        -6.4311
   5   0.0000       0.000521         0.0142
   6   0.0000       0.035193         0.9577
   7   0.0000       0.038295         1.0421
   8   0.0000       0.047309         1.2873
   9   0.0000       0.083322         2.2673

                 SPIN DOWN ORBITALS
  NO   OCC          E(Eh)            E(eV)
   0   1.0000     -10.171986      -276.7938
   1   1.0000      -0.648401       -17.6439
   2   1.0000      -0.423994       -11.5375
   3   1.0000      -0.397721       -10.8225
   4   0.0000      -0.078240        -2.1290
   5   0.0000       0.003669         0.0999
   6   0.0000       0.034878         0.9491
   7   0.0000       0.037868         1.0304
   8   0.0000       0.060509         1.6465

MULLIKEN ATOMIC CHARGES AND SPIN POPULATIONS
--------------------------------------------
   0 C :   -0.427831    1.101499
   1 H :    0.146670   -0.031635
   2 H :    0.147397   -0.035108
   3 H :    0.133764   -0.034755
Sum of atomic charges         :   -0.0000000

LOEWDIN ATOMIC CHARGES AND SPIN POPULATIONS
-------------------------------------------
   0 C :   -0.155279    0.909552
   1 H :    0.031412    0.036938
   2 H :    0.070833    0.023952
   3 H :    0.053035    0.029557

  Mayer bond orders larger than 0.100000
B(  0-C ,  1-H ) :   0.9772 B(  0-C ,  2-H ) :   0.9747 B(  0-C ,  3-H ) :   0.9786

FINAL SINGLE POINT ENERGY       -39.824151180839

DIPOLE MOMENT
-------------
                                X             Y             Z
Electronic contribution:     -0.01841       0.02094       0.14972
Nuclear contribution   :      0.05575      -0.05034      -0.19593
                        -----------------------------------------
Total Dipole Moment    :      0.03734      -0.02940      -0.04621
                        -----------------------------------------
Magnitude (a.u.)       :      0.06629
Magnitude (Debye)      :      0.16849

Rotational constants in cm-1:    10.712561     8.393971     4.744085
Rotational constants in MHz : 321154.496937 251644.917624 142224.096771

                             ****ORCA TERMINATED NORMALLY****
TOTAL RUN TIME: 0 days 0 hours 0 minutes 30 seconds 581 msec
