                         Program Version 5.0.3 -  RELEASE  -
|  1> !B3LYP EPR-III Autoaux
|  2> !PAL4
|  3>
|  4> * xyz 0 2
|  5>  C    -24.2825689991    -42.3512535276    -16.6600965309
|  6>  H    -24.1072255414    -41.3236999790    -16.7930917647
|  7>  H    -25.2955738230    -42.8550653949    -16.4177342479
|  8>  H    -23.5109288631    -43.1118404399    -16.8840074772
|  9> *
| 10>
| 11> %EPRNMR
| 12>         GTENSOR   TRUE
| 13>         NUCLEI    = ALL H {AISO, ADIP, AORB}
| 14>         NUCLEI    = ALL C {AISO, ADIP, AORB}
| 15> END
| 16>
| 17>
| 18>                          ****END OF INPUT****

CARTESIAN COORDINATES (ANGSTROEM)
---------------------------------
  C    -24.282569  -42.351254  -16.660097
  H    -24.107226  -41.323700  -16.793092
  H    -25.295574  -42.855065  -16.417734
  H    -23.510929  -43.111840  -16.884007

 Total Charge           Charge          ....    0
 Multiplicity           Mult            ....    2
 Number of Electrons    NEL             ....    9
 Basis Dimension        Dim             ....   73

ORBITAL ENERGIES
----------------
                 SPIN UP ORBITALS
  NO   OCC          E(Eh)            E(eV)
   0   1.0000     -10.191670      -277.3294
   1   1.0000      -0.682259       -18.5652
   2   1.0000      -0.436270       -11.8715
   3   1.0000      -0.398397       -10.8409
   4   1.0000      -0.235609        -6.4113
   5   0.0000      -0.000045        -0.0012
   6   0.0000       0.034764         0.9460
   7   0.0000       0.038438         1.0460
   8   0.0000       0.047321         1.2877
   9   0.0000       0.080398         2.1877

                 SPIN DOWN ORBITALS
  NO   OCC          E(Eh)            E(eV)
   0   1.0000     -10.177068      -276.9321
   1   1.0000      -0.642596       -17.4859
   2   1.0000      -0.426946       -11.6178
   3   1.0000      -0.389212       -10.5910
   4   0.0000      -0.077543        -2.1101
   5   0.0000       0.003337         0.0908
   6   0.0000       0.034472         0.9380
   7   0.0000       0.038116         1.0372
   8   0.0000       0.060607         1.6492

MULLIKEN ATOMIC CHARGES AND SPIN POPULATIONS
--------------------------------------------
   0 C :   -0.428039    1.107337
   1 H :    0.152853   -0.031039
   2 H :    0.137810   -0.039822
   3 H :    0.137376   -0.036476
Sum of atomic charges         :    0.0000000

LOEWDIN ATOMIC CHARGES AND SPIN POPULATIONS
-------------------------------------------
   0 C :   -0.168531    0.917801
   1 H :    0.032048    0.036088
   2 H :    0.079390    0.019009
   3 H :    0.057093    0.027103

  Mayer bond orders larger than 0.100000
B(  0-C ,  1-H ) :   0.9735 B(  0-C ,  2-H ) :   0.9744 B(  0-C ,  3-H ) :   0.9753

FINAL SINGLE POINT ENERGY       -39.822745202120

DIPOLE MOMENT
-------------
                                X             Y             Z
Electronic contribution:      0.04968       0.16785       0.04707
Nuclear contribution   :     -0.04948      -0.17751      -0.08585
                        -----------------------------------------
Total Dipole Moment    :      0.00020      -0.00966      -0.03878
                        -----------------------------------------
Magnitude (a.u.)       :      0.03997
Magnitude (Debye)      :      0.10158

Rotational constants in cm-1:     9.848202     8.493942     4.572785
Rotational constants in MHz : 295241.661021 254641.960491 137088.646796

                             ****ORCA TERMINATED NORMALLY****
TOTAL RUN TIME: 0 days 0 hours 0 minutes 25 seconds 962 msec
