                         Program Version 5.0.3 -  RELEASE  -
|  1> !B3LYP EPR-III Autoaux
|  2> !PAL4
|  3>
|  4> * xyz 0 2
|  5>  C    -56.1955762965    -78.0815074840    -24.7297038183
|  6>  H    -55.3057418369    -78.6890225966    -24.8194959374
|  7>  H    -56.0442526114    -77.0023589798    -24.6041867411
|  8>  H    -57.1537100552    -78.6213689636    -24.8221106334
|  9> *
| 10>
| 11> %EPRNMR
| 12>         GTENSOR   TRUE
| 13>         NUCLEI    = ALL H {AISO, ADIP, AORB}
| 14>         NUCLEI    = ALL C {AISO, ADIP, AORB}
| 15> END
| 16>
| 17>
| 18>                          ****END OF INPUT****

CARTESIAN COORDINATES (ANGSTROEM)
---------------------------------
  C    -56.195576  -78.081507  -24.729704
  H    -55.305742  -78.689023  -24.819496
  H    -56.044253  -77.002359  -24.604187
  H    -57.153710  -78.621369  -24.822111

 Total Charge           Charge          ....    0
 Multiplicity           Mult            ....    2
 Number of Electrons    NEL             ....    9
 Basis Dimension        Dim             ....   73

ORBITAL ENERGIES
----------------
                 SPIN UP ORBITALS
  NO   OCC          E(Eh)            E(eV)
   0   1.0000     -10.188290      -277.2375
   1   1.0000      -0.684043       -18.6138
   2   1.0000      -0.428307       -11.6548
   3   1.0000      -0.410840       -11.1795
   4   1.0000      -0.234761        -6.3882
   5   0.0000       0.000488         0.0133
   6   0.0000       0.035516         0.9664
   7   0.0000       0.037888         1.0310
   8   0.0000       0.047429         1.2906
   9   0.0000       0.083726         2.2783

                 SPIN DOWN ORBITALS
  NO   OCC          E(Eh)            E(eV)
   0   1.0000     -10.173780      -276.8426
   1   1.0000      -0.644482       -17.5373
   2   1.0000      -0.419243       -11.4082
   3   1.0000      -0.401222       -10.9178
   4   0.0000      -0.077183        -2.1003
   5   0.0000       0.003762         0.1024
   6   0.0000       0.035189         0.9575
   7   0.0000       0.037496         1.0203
   8   0.0000       0.060729         1.6525

MULLIKEN ATOMIC CHARGES AND SPIN POPULATIONS
--------------------------------------------
   0 C :   -0.428086    1.105987
   1 H :    0.137190   -0.034915
   2 H :    0.146020   -0.035239
   3 H :    0.144877   -0.035832
Sum of atomic charges         :    0.0000000

LOEWDIN ATOMIC CHARGES AND SPIN POPULATIONS
-------------------------------------------
   0 C :   -0.162687    0.913599
   1 H :    0.046632    0.031171
   2 H :    0.056542    0.028151
   3 H :    0.059513    0.027080

  Mayer bond orders larger than 0.100000
B(  0-C ,  1-H ) :   0.9767 B(  0-C ,  2-H ) :   0.9749 B(  0-C ,  3-H ) :   0.9750

FINAL SINGLE POINT ENERGY       -39.827049887330

DIPOLE MOMENT
-------------
                                X             Y             Z
Electronic contribution:     -0.05022       0.04464       0.02813
Nuclear contribution   :      0.06223      -0.05114      -0.04248
                        -----------------------------------------
Total Dipole Moment    :      0.01201      -0.00649      -0.01435
                        -----------------------------------------
Magnitude (a.u.)       :      0.01981
Magnitude (Debye)      :      0.05034

Rotational constants in cm-1:    10.202250     8.573894     4.660314
Rotational constants in MHz : 305855.772451 257038.865247 139712.702598

                             ****ORCA TERMINATED NORMALLY****
TOTAL RUN TIME: 0 days 0 hours 0 minutes 17 seconds 603 msec
