                         Program Version 5.0.3 -  RELEASE  -
|  1> !B3LYP EPR-III Autoaux
|  2> !PAL4
|  3>
|  4> * xyz 0 2
|  5>  C     -0.3412590261    -15.3019157684    -10.4554462069
|  6>  H      0.2301184649    -14.3975759003    -10.9389336057
|  7>  H     -0.9331117589    -15.3567900239     -9.6001009628
|  8>  H     -0.3550284371    -16.1233968054    -11.2130825976
|  9> *
| 10>
| 11> %EPRNMR
| 12>         GTENSOR   TRUE
| 13>         NUCLEI    = ALL H {AISO, ADIP, AORB}
| 14>         NUCLEI    = ALL C {AISO, ADIP, AORB}
| 15> END
| 16>
| 17>
| 18>                          ****END OF INPUT****

CARTESIAN COORDINATES (ANGSTROEM)
---------------------------------
  C     -0.341259  -15.301916  -10.455446
  H      0.230118  -14.397576  -10.938934
  H     -0.933112  -15.356790   -9.600101
  H     -0.355028  -16.123397  -11.213083

 Total Charge           Charge          ....    0
 Multiplicity           Mult            ....    2
 Number of Electrons    NEL             ....    9
 Basis Dimension        Dim             ....   73

ORBITAL ENERGIES
----------------
                 SPIN UP ORBITALS
  NO   OCC          E(Eh)            E(eV)
   0   1.0000     -10.193716      -277.3851
   1   1.0000      -0.681801       -18.5527
   2   1.0000      -0.440901       -11.9975
   3   1.0000      -0.390037       -10.6135
   4   1.0000      -0.236664        -6.4399
   5   0.0000      -0.000514        -0.0140
   6   0.0000       0.033864         0.9215
   7   0.0000       0.039144         1.0652
   8   0.0000       0.047227         1.2851
   9   0.0000       0.075637         2.0582

                 SPIN DOWN ORBITALS
  NO   OCC          E(Eh)            E(eV)
   0   1.0000     -10.179043      -276.9859
   1   1.0000      -0.642225       -17.4758
   2   1.0000      -0.431627       -11.7452
   3   1.0000      -0.380760       -10.3610
   4   0.0000      -0.078101        -2.1252
   5   0.0000       0.002932         0.0798
   6   0.0000       0.033634         0.9152
   7   0.0000       0.038845         1.0570
   8   0.0000       0.060478         1.6457

MULLIKEN ATOMIC CHARGES AND SPIN POPULATIONS
--------------------------------------------
   0 C :   -0.429576    1.107662
   1 H :    0.139925   -0.040945
   2 H :    0.156259   -0.029562
   3 H :    0.133393   -0.037154
Sum of atomic charges         :    0.0000000

LOEWDIN ATOMIC CHARGES AND SPIN POPULATIONS
-------------------------------------------
   0 C :   -0.172968    0.920219
   1 H :    0.085960    0.016482
   2 H :    0.026599    0.037806
   3 H :    0.060410    0.025493

  Mayer bond orders larger than 0.100000
B(  0-C ,  1-H ) :   0.9735 B(  0-C ,  2-H ) :   0.9729 B(  0-C ,  3-H ) :   0.9756

FINAL SINGLE POINT ENERGY       -39.818280199765

DIPOLE MOMENT
-------------
                                X             Y             Z
Electronic contribution:     -0.02180      -0.01637       0.24837
Nuclear contribution   :     -0.02567       0.02097      -0.28913
                        -----------------------------------------
Total Dipole Moment    :     -0.04747       0.00460      -0.04076
                        -----------------------------------------
Magnitude (a.u.)       :      0.06274
Magnitude (Debye)      :      0.15946

Rotational constants in cm-1:    10.157516     8.088691     4.532459
Rotational constants in MHz : 304514.673235 242492.862409 135879.714802

                             ****ORCA TERMINATED NORMALLY****
TOTAL RUN TIME: 0 days 0 hours 0 minutes 22 seconds 61 msec
