                         Program Version 5.0.3 -  RELEASE  -
|  1> !B3LYP EPR-III Autoaux
|  2> !PAL4
|  3>
|  4> * xyz 0 2
|  5>  C      0.9489005970    -13.8030782741    -10.1341869118
|  6>  H      0.2909118275    -14.2960795690     -9.4931540709
|  7>  H      1.9488649037    -14.2427293380    -10.2026469766
|  8>  H      0.6382850694    -13.0468770540    -10.8325176222
|  9> *
| 10>
| 11> %EPRNMR
| 12>         GTENSOR   TRUE
| 13>         NUCLEI    = ALL H {AISO, ADIP, AORB}
| 14>         NUCLEI    = ALL C {AISO, ADIP, AORB}
| 15> END
| 16>
| 17>
| 18>                          ****END OF INPUT****

CARTESIAN COORDINATES (ANGSTROEM)
---------------------------------
  C      0.948901  -13.803078  -10.134187
  H      0.290912  -14.296080   -9.493154
  H      1.948865  -14.242729  -10.202647
  H      0.638285  -13.046877  -10.832518

 Total Charge           Charge          ....    0
 Multiplicity           Mult            ....    2
 Number of Electrons    NEL             ....    9
 Basis Dimension        Dim             ....   73

ORBITAL ENERGIES
----------------
                 SPIN UP ORBITALS
  NO   OCC          E(Eh)            E(eV)
   0   1.0000     -10.181386      -277.0496
   1   1.0000      -0.690557       -18.7910
   2   1.0000      -0.432991       -11.7823
   3   1.0000      -0.415952       -11.3186
   4   1.0000      -0.235755        -6.4152
   5   0.0000       0.001259         0.0343
   6   0.0000       0.036090         0.9821
   7   0.0000       0.037664         1.0249
   8   0.0000       0.047522         1.2932
   9   0.0000       0.091015         2.4767

                 SPIN DOWN ORBITALS
  NO   OCC          E(Eh)            E(eV)
   0   1.0000     -10.166985      -276.6577
   1   1.0000      -0.651406       -17.7257
   2   1.0000      -0.423343       -11.5198
   3   1.0000      -0.406336       -11.0570
   4   0.0000      -0.077978        -2.1219
   5   0.0000       0.004264         0.1160
   6   0.0000       0.035708         0.9717
   7   0.0000       0.037256         1.0138
   8   0.0000       0.060717         1.6522

MULLIKEN ATOMIC CHARGES AND SPIN POPULATIONS
--------------------------------------------
   0 C :   -0.425522    1.099227
   1 H :    0.144077   -0.031533
   2 H :    0.136663   -0.034873
   3 H :    0.144782   -0.032820
Sum of atomic charges         :   -0.0000000

LOEWDIN ATOMIC CHARGES AND SPIN POPULATIONS
-------------------------------------------
   0 C :   -0.140651    0.902882
   1 H :    0.032506    0.037099
   2 H :    0.058051    0.028554
   3 H :    0.050094    0.031465

  Mayer bond orders larger than 0.100000
B(  0-C ,  1-H ) :   0.9789 B(  0-C ,  2-H ) :   0.9795 B(  0-C ,  3-H ) :   0.9783

FINAL SINGLE POINT ENERGY       -39.827174609859

DIPOLE MOMENT
-------------
                                X             Y             Z
Electronic contribution:     -0.03962       0.09032       0.06072
Nuclear contribution   :      0.02350      -0.13225      -0.09425
                        -----------------------------------------
Total Dipole Moment    :     -0.01611      -0.04193      -0.03354
                        -----------------------------------------
Magnitude (a.u.)       :      0.05606
Magnitude (Debye)      :      0.14248

Rotational constants in cm-1:    10.219105     9.233048     4.879488
Rotational constants in MHz : 306361.046321 276799.827857 146283.363147

                             ****ORCA TERMINATED NORMALLY****
TOTAL RUN TIME: 0 days 0 hours 0 minutes 20 seconds 439 msec
