                         Program Version 5.0.3 -  RELEASE  -
|  1> !B3LYP EPR-III Autoaux
|  2> !PAL4
|  3>
|  4> * xyz 0 2
|  5>  C    -59.1722960908    -81.4161476592    -25.4754883602
|  6>  H    -59.5974329967    -80.4468256628    -25.3771468993
|  7>  H    -59.7595183927    -82.3530603492    -25.5575374746
|  8>  H    -58.1496965538    -81.6588167527    -25.4562133683
|  9> *
| 10>
| 11> %EPRNMR
| 12>         GTENSOR   TRUE
| 13>         NUCLEI    = ALL H {AISO, ADIP, AORB}
| 14>         NUCLEI    = ALL C {AISO, ADIP, AORB}
| 15> END
| 16>
| 17>
| 18>                          ****END OF INPUT****

CARTESIAN COORDINATES (ANGSTROEM)
---------------------------------
  C    -59.172296  -81.416148  -25.475488
  H    -59.597433  -80.446826  -25.377147
  H    -59.759518  -82.353060  -25.557537
  H    -58.149697  -81.658817  -25.456213

 Total Charge           Charge          ....    0
 Multiplicity           Mult            ....    2
 Number of Electrons    NEL             ....    9
 Basis Dimension        Dim             ....   73

ORBITAL ENERGIES
----------------
                 SPIN UP ORBITALS
  NO   OCC          E(Eh)            E(eV)
   0   1.0000     -10.182813      -277.0884
   1   1.0000      -0.690065       -18.7776
   2   1.0000      -0.442654       -12.0452
   3   1.0000      -0.404994       -11.0204
   4   1.0000      -0.235020        -6.3952
   5   0.0000       0.001023         0.0278
   6   0.0000       0.034774         0.9463
   7   0.0000       0.038556         1.0492
   8   0.0000       0.047392         1.2896
   9   0.0000       0.087406         2.3784

                 SPIN DOWN ORBITALS
  NO   OCC          E(Eh)            E(eV)
   0   1.0000     -10.168448      -276.6975
   1   1.0000      -0.650797       -17.7091
   2   1.0000      -0.433231       -11.7888
   3   1.0000      -0.395342       -10.7578
   4   0.0000      -0.077687        -2.1140
   5   0.0000       0.004103         0.1117
   6   0.0000       0.034397         0.9360
   7   0.0000       0.038106         1.0369
   8   0.0000       0.060616         1.6494

MULLIKEN ATOMIC CHARGES AND SPIN POPULATIONS
--------------------------------------------
   0 C :   -0.429997    1.102346
   1 H :    0.152055   -0.031853
   2 H :    0.134960   -0.036972
   3 H :    0.142982   -0.033521
Sum of atomic charges         :    0.0000000

LOEWDIN ATOMIC CHARGES AND SPIN POPULATIONS
-------------------------------------------
   0 C :   -0.144689    0.904654
   1 H :    0.044512    0.033287
   2 H :    0.063867    0.026354
   3 H :    0.036309    0.035705

  Mayer bond orders larger than 0.100000
B(  0-C ,  1-H ) :   0.9772 B(  0-C ,  2-H ) :   0.9797 B(  0-C ,  3-H ) :   0.9789

FINAL SINGLE POINT ENERGY       -39.824997469499

DIPOLE MOMENT
-------------
                                X             Y             Z
Electronic contribution:      0.00255       0.14637      -0.01182
Nuclear contribution   :      0.00767      -0.15759       0.02666
                        -----------------------------------------
Total Dipole Moment    :      0.01023      -0.01121       0.01484
                        -----------------------------------------
Magnitude (a.u.)       :      0.02123
Magnitude (Debye)      :      0.05395

Rotational constants in cm-1:    10.859574     8.701019     4.832799
Rotational constants in MHz : 325561.851784 260849.973424 144883.654697

                             ****ORCA TERMINATED NORMALLY****
TOTAL RUN TIME: 0 days 0 hours 0 minutes 17 seconds 850 msec
