                         Program Version 5.0.3 -  RELEASE  -
|  1> !B3LYP EPR-III Autoaux
|  2> !PAL4
|  3>
|  4> * xyz 0 2
|  5>  C     10.4060330483     -3.0665041636     -7.7118170182
|  6>  H      9.9499727130     -2.9321105526     -8.6600308197
|  7>  H     10.2343616925     -4.0422583129     -7.2887204706
|  8>  H     11.0519654966     -2.3626720611     -7.2022366731
|  9> *
| 10>
| 11> %EPRNMR
| 12>         GTENSOR   TRUE
| 13>         NUCLEI    = ALL H {AISO, ADIP, AORB}
| 14>         NUCLEI    = ALL C {AISO, ADIP, AORB}
| 15> END
| 16>
| 17>
| 18>                          ****END OF INPUT****

CARTESIAN COORDINATES (ANGSTROEM)
---------------------------------
  C     10.406033   -3.066504   -7.711817
  H      9.949973   -2.932111   -8.660031
  H     10.234362   -4.042258   -7.288720
  H     11.051965   -2.362672   -7.202237

 Total Charge           Charge          ....    0
 Multiplicity           Mult            ....    2
 Number of Electrons    NEL             ....    9
 Basis Dimension        Dim             ....   73

ORBITAL ENERGIES
----------------
                 SPIN UP ORBITALS
  NO   OCC          E(Eh)            E(eV)
   0   1.0000     -10.182175      -277.0711
   1   1.0000      -0.689558       -18.7638
   2   1.0000      -0.434355       -11.8194
   3   1.0000      -0.413645       -11.2558
   4   1.0000      -0.234801        -6.3893
   5   0.0000       0.001201         0.0327
   6   0.0000       0.035600         0.9687
   7   0.0000       0.037948         1.0326
   8   0.0000       0.047530         1.2934
   9   0.0000       0.088657         2.4125

                 SPIN DOWN ORBITALS
  NO   OCC          E(Eh)            E(eV)
   0   1.0000     -10.167783      -276.6794
   1   1.0000      -0.650235       -17.6938
   2   1.0000      -0.424975       -11.5642
   3   1.0000      -0.403919       -10.9912
   4   0.0000      -0.077444        -2.1074
   5   0.0000       0.004269         0.1162
   6   0.0000       0.035231         0.9587
   7   0.0000       0.037520         1.0210
   8   0.0000       0.060768         1.6536

MULLIKEN ATOMIC CHARGES AND SPIN POPULATIONS
--------------------------------------------
   0 C :   -0.427854    1.101892
   1 H :    0.144090   -0.033391
   2 H :    0.136864   -0.034656
   3 H :    0.146900   -0.033845
Sum of atomic charges         :    0.0000000

LOEWDIN ATOMIC CHARGES AND SPIN POPULATIONS
-------------------------------------------
   0 C :   -0.144406    0.904493
   1 H :    0.041824    0.033966
   2 H :    0.048949    0.031444
   3 H :    0.053633    0.030097

  Mayer bond orders larger than 0.100000
B(  0-C ,  1-H ) :   0.9786 B(  0-C ,  2-H ) :   0.9794 B(  0-C ,  3-H ) :   0.9774

FINAL SINGLE POINT ENERGY       -39.827445655807

DIPOLE MOMENT
-------------
                                X             Y             Z
Electronic contribution:     -0.00188       0.08560       0.00127
Nuclear contribution   :      0.01364      -0.10307      -0.01164
                        -----------------------------------------
Total Dipole Moment    :      0.01176      -0.01747      -0.01037
                        -----------------------------------------
Magnitude (a.u.)       :      0.02348
Magnitude (Debye)      :      0.05968

Rotational constants in cm-1:    10.505856     8.961207     4.840034
Rotational constants in MHz : 314957.633824 268650.234282 145100.560435

                             ****ORCA TERMINATED NORMALLY****
TOTAL RUN TIME: 0 days 0 hours 0 minutes 22 seconds 968 msec
