                         Program Version 5.0.3 -  RELEASE  -
|  1> !B3LYP EPR-III Autoaux
|  2> !PAL4
|  3>
|  4> * xyz 0 2
|  5>  C    -47.3352760981    -68.2145601112    -22.4851955396
|  6>  H    -47.7487803371    -69.1881481454    -22.5157054402
|  7>  H    -46.2670633881    -68.2457563989    -22.6007543444
|  8>  H    -47.9449514710    -67.3668542966    -22.4256170975
|  9> *
| 10>
| 11> %EPRNMR
| 12>         GTENSOR   TRUE
| 13>         NUCLEI    = ALL H {AISO, ADIP, AORB}
| 14>         NUCLEI    = ALL C {AISO, ADIP, AORB}
| 15> END
| 16>
| 17>
| 18>                          ****END OF INPUT****

CARTESIAN COORDINATES (ANGSTROEM)
---------------------------------
  C    -47.335276  -68.214560  -22.485196
  H    -47.748780  -69.188148  -22.515705
  H    -46.267063  -68.245756  -22.600754
  H    -47.944951  -67.366854  -22.425617

 Total Charge           Charge          ....    0
 Multiplicity           Mult            ....    2
 Number of Electrons    NEL             ....    9
 Basis Dimension        Dim             ....   73

ORBITAL ENERGIES
----------------
                 SPIN UP ORBITALS
  NO   OCC          E(Eh)            E(eV)
   0   1.0000     -10.177950      -276.9561
   1   1.0000      -0.693571       -18.8730
   2   1.0000      -0.442248       -12.0342
   3   1.0000      -0.411741       -11.2040
   4   1.0000      -0.234866        -6.3910
   5   0.0000       0.001571         0.0428
   6   0.0000       0.035209         0.9581
   7   0.0000       0.038359         1.0438
   8   0.0000       0.047588         1.2949
   9   0.0000       0.089331         2.4308

                 SPIN DOWN ORBITALS
  NO   OCC          E(Eh)            E(eV)
   0   1.0000     -10.163632      -276.5665
   1   1.0000      -0.654399       -17.8071
   2   1.0000      -0.432704       -11.7745
   3   1.0000      -0.401879       -10.9357
   4   0.0000      -0.077643        -2.1128
   5   0.0000       0.004522         0.1230
   6   0.0000       0.034822         0.9475
   7   0.0000       0.037905         1.0315
   8   0.0000       0.060780         1.6539

MULLIKEN ATOMIC CHARGES AND SPIN POPULATIONS
--------------------------------------------
   0 C :   -0.428865    1.099575
   1 H :    0.137436   -0.033737
   2 H :    0.141283   -0.034682
   3 H :    0.150146   -0.031157
Sum of atomic charges         :    0.0000000

LOEWDIN ATOMIC CHARGES AND SPIN POPULATIONS
-------------------------------------------
   0 C :   -0.131773    0.898267
   1 H :    0.042229    0.034396
   2 H :    0.051730    0.031332
   3 H :    0.037814    0.036005

  Mayer bond orders larger than 0.100000
B(  0-C ,  1-H ) :   0.9811 B(  0-C ,  2-H ) :   0.9808 B(  0-C ,  3-H ) :   0.9797

FINAL SINGLE POINT ENERGY       -39.825902827337

DIPOLE MOMENT
-------------
                                X             Y             Z
Electronic contribution:     -0.03596       0.10345       0.04233
Nuclear contribution   :      0.03375      -0.11773      -0.06482
                        -----------------------------------------
Total Dipole Moment    :     -0.00221      -0.01427      -0.02249
                        -----------------------------------------
Magnitude (a.u.)       :      0.02673
Magnitude (Debye)      :      0.06795

Rotational constants in cm-1:    10.931338     9.096978     4.969604
Rotational constants in MHz : 327713.281458 272720.544168 148984.965170

                             ****ORCA TERMINATED NORMALLY****
TOTAL RUN TIME: 0 days 0 hours 0 minutes 19 seconds 20 msec
