                         Program Version 5.0.3 -  RELEASE  -
|  1> !B3LYP EPR-III Autoaux
|  2> !PAL4
|  3>
|  4> * xyz 0 2
|  5>  C    -23.0050841751    -40.9070056737    -16.3239915414
|  6>  H    -21.9334961590    -40.9809105543    -16.2093078406
|  7>  H    -23.6468870795    -40.0517996713    -16.1914880929
|  8>  H    -23.4149101533    -41.8048081536    -16.7548714064
|  9> *
| 10>
| 11> %EPRNMR
| 12>         GTENSOR   TRUE
| 13>         NUCLEI    = ALL H {AISO, ADIP, AORB}
| 14>         NUCLEI    = ALL C {AISO, ADIP, AORB}
| 15> END
| 16>
| 17>
| 18>                          ****END OF INPUT****

CARTESIAN COORDINATES (ANGSTROEM)
---------------------------------
  C    -23.005084  -40.907006  -16.323992
  H    -21.933496  -40.980911  -16.209308
  H    -23.646887  -40.051800  -16.191488
  H    -23.414910  -41.804808  -16.754871

 Total Charge           Charge          ....    0
 Multiplicity           Mult            ....    2
 Number of Electrons    NEL             ....    9
 Basis Dimension        Dim             ....   73

ORBITAL ENERGIES
----------------
                 SPIN UP ORBITALS
  NO   OCC          E(Eh)            E(eV)
   0   1.0000     -10.183692      -277.1124
   1   1.0000      -0.688592       -18.7375
   2   1.0000      -0.437024       -11.8920
   3   1.0000      -0.408241       -11.1088
   4   1.0000      -0.235255        -6.4016
   5   0.0000       0.000998         0.0272
   6   0.0000       0.035111         0.9554
   7   0.0000       0.038398         1.0449
   8   0.0000       0.047489         1.2922
   9   0.0000       0.085636         2.3303

                 SPIN DOWN ORBITALS
  NO   OCC          E(Eh)            E(eV)
   0   1.0000     -10.169261      -276.7197
   1   1.0000      -0.649315       -17.6688
   2   1.0000      -0.427732       -11.6392
   3   1.0000      -0.398444       -10.8422
   4   0.0000      -0.077660        -2.1132
   5   0.0000       0.004093         0.1114
   6   0.0000       0.034764         0.9460
   7   0.0000       0.037974         1.0333
   8   0.0000       0.060719         1.6523

MULLIKEN ATOMIC CHARGES AND SPIN POPULATIONS
--------------------------------------------
   0 C :   -0.428300    1.102437
   1 H :    0.144008   -0.034632
   2 H :    0.149251   -0.033128
   3 H :    0.135042   -0.034677
Sum of atomic charges         :    0.0000000

LOEWDIN ATOMIC CHARGES AND SPIN POPULATIONS
-------------------------------------------
   0 C :   -0.149289    0.906602
   1 H :    0.051173    0.030712
   2 H :    0.050644    0.031020
   3 H :    0.047472    0.031666

  Mayer bond orders larger than 0.100000
B(  0-C ,  1-H ) :   0.9781 B(  0-C ,  2-H ) :   0.9768 B(  0-C ,  3-H ) :   0.9792

FINAL SINGLE POINT ENERGY       -39.826535769838

DIPOLE MOMENT
-------------
                                X             Y             Z
Electronic contribution:     -0.01091       0.08441       0.09565
Nuclear contribution   :      0.01496      -0.08732      -0.13767
                        -----------------------------------------
Total Dipole Moment    :      0.00405      -0.00291      -0.04202
                        -----------------------------------------
Magnitude (a.u.)       :      0.04232
Magnitude (Debye)      :      0.10756

Rotational constants in cm-1:    10.695232     8.685297     4.806753
Rotational constants in MHz : 320634.993420 260378.651468 144102.825278

                             ****ORCA TERMINATED NORMALLY****
TOTAL RUN TIME: 0 days 0 hours 0 minutes 31 seconds 960 msec
