                         Program Version 5.0.3 -  RELEASE  -
|  1> !B3LYP EPR-III Autoaux
|  2> !PAL4
|  3>
|  4> * xyz 0 2
|  5>  C    -21.2760628262    -38.9616839574    -15.8915665876
|  6>  H    -21.4349646897    -40.0060891884    -15.7215045074
|  7>  H    -20.3109261400    -38.6068472692    -16.1969368545
|  8>  H    -21.9978961987    -38.1948173645    -15.6975396474
|  9> *
| 10>
| 11> %EPRNMR
| 12>         GTENSOR   TRUE
| 13>         NUCLEI    = ALL H {AISO, ADIP, AORB}
| 14>         NUCLEI    = ALL C {AISO, ADIP, AORB}
| 15> END
| 16>
| 17>
| 18>                          ****END OF INPUT****

CARTESIAN COORDINATES (ANGSTROEM)
---------------------------------
  C    -21.276063  -38.961684  -15.891567
  H    -21.434965  -40.006089  -15.721505
  H    -20.310926  -38.606847  -16.196937
  H    -21.997896  -38.194817  -15.697540

 Total Charge           Charge          ....    0
 Multiplicity           Mult            ....    2
 Number of Electrons    NEL             ....    9
 Basis Dimension        Dim             ....   73

ORBITAL ENERGIES
----------------
                 SPIN UP ORBITALS
  NO   OCC          E(Eh)            E(eV)
   0   1.0000     -10.181436      -277.0509
   1   1.0000      -0.690002       -18.7759
   2   1.0000      -0.432886       -11.7794
   3   1.0000      -0.416401       -11.3309
   4   1.0000      -0.234834        -6.3902
   5   0.0000       0.001304         0.0355
   6   0.0000       0.035899         0.9769
   7   0.0000       0.037714         1.0262
   8   0.0000       0.047544         1.2937
   9   0.0000       0.090321         2.4578

                 SPIN DOWN ORBITALS
  NO   OCC          E(Eh)            E(eV)
   0   1.0000     -10.167058      -276.6597
   1   1.0000      -0.650691       -17.7062
   2   1.0000      -0.423440       -11.5224
   3   1.0000      -0.406712       -11.0672
   4   0.0000      -0.077482        -2.1084
   5   0.0000       0.004345         0.1182
   6   0.0000       0.035514         0.9664
   7   0.0000       0.037288         1.0147
   8   0.0000       0.060775         1.6538

MULLIKEN ATOMIC CHARGES AND SPIN POPULATIONS
--------------------------------------------
   0 C :   -0.427018    1.101021
   1 H :    0.146118   -0.033053
   2 H :    0.138390   -0.034160
   3 H :    0.142510   -0.033809
Sum of atomic charges         :    0.0000000

LOEWDIN ATOMIC CHARGES AND SPIN POPULATIONS
-------------------------------------------
   0 C :   -0.142042    0.903384
   1 H :    0.047469    0.032247
   2 H :    0.047329    0.032121
   3 H :    0.047245    0.032248

  Mayer bond orders larger than 0.100000
B(  0-C ,  1-H ) :   0.9781 B(  0-C ,  2-H ) :   0.9794 B(  0-C ,  3-H ) :   0.9788

FINAL SINGLE POINT ENERGY       -39.828107669332

DIPOLE MOMENT
-------------
                                X             Y             Z
Electronic contribution:     -0.05045      -0.04993      -0.02247
Nuclear contribution   :      0.06326       0.05793       0.04401
                        -----------------------------------------
Total Dipole Moment    :      0.01281       0.00800       0.02154
                        -----------------------------------------
Magnitude (a.u.)       :      0.02631
Magnitude (Debye)      :      0.06687

Rotational constants in cm-1:    10.290124     9.198697     4.862670
Rotational constants in MHz : 308490.145090 275769.999165 145779.180144

                             ****ORCA TERMINATED NORMALLY****
TOTAL RUN TIME: 0 days 0 hours 0 minutes 21 seconds 154 msec
