                         Program Version 5.0.3 -  RELEASE  -
|  1> !B3LYP EPR-III Autoaux
|  2> !PAL4
|  3>
|  4> * xyz 0 2
|  5>  C    -50.5541572772    -71.8367105045    -23.2935674797
|  6>  H    -49.8352690283    -70.9927209856    -23.3264752481
|  7>  H    -51.6353229307    -71.3744718272    -23.1956766857
|  8>  H    -50.1614401869    -72.8112893080    -23.4191437879
|  9> *
| 10>
| 11> %EPRNMR
| 12>         GTENSOR   TRUE
| 13>         NUCLEI    = ALL H {AISO, ADIP, AORB}
| 14>         NUCLEI    = ALL C {AISO, ADIP, AORB}
| 15> END
| 16>
| 17>
| 18>                          ****END OF INPUT****

CARTESIAN COORDINATES (ANGSTROEM)
---------------------------------
  C    -50.554157  -71.836711  -23.293567
  H    -49.835269  -70.992721  -23.326475
  H    -51.635323  -71.374472  -23.195677
  H    -50.161440  -72.811289  -23.419144

 Total Charge           Charge          ....    0
 Multiplicity           Mult            ....    2
 Number of Electrons    NEL             ....    9
 Basis Dimension        Dim             ....   73

ORBITAL ENERGIES
----------------
                 SPIN UP ORBITALS
  NO   OCC          E(Eh)            E(eV)
   0   1.0000     -10.194798      -277.4146
   1   1.0000      -0.680504       -18.5175
   2   1.0000      -0.438806       -11.9405
   3   1.0000      -0.389702       -10.6043
   4   1.0000      -0.235484        -6.4079
   5   0.0000      -0.000915        -0.0249
   6   0.0000       0.033416         0.9093
   7   0.0000       0.039259         1.0683
   8   0.0000       0.047245         1.2856
   9   0.0000       0.071432         1.9438

                 SPIN DOWN ORBITALS
  NO   OCC          E(Eh)            E(eV)
   0   1.0000     -10.180119      -277.0151
   1   1.0000      -0.640772       -17.4363
   2   1.0000      -0.429844       -11.6966
   3   1.0000      -0.380276       -10.3478
   4   0.0000      -0.077363        -2.1051
   5   0.0000       0.002685         0.0731
   6   0.0000       0.033223         0.9040
   7   0.0000       0.038937         1.0595
   8   0.0000       0.060569         1.6482

MULLIKEN ATOMIC CHARGES AND SPIN POPULATIONS
--------------------------------------------
   0 C :   -0.433857    1.112095
   1 H :    0.131304   -0.037369
   2 H :    0.145703   -0.042737
   3 H :    0.156850   -0.031989
Sum of atomic charges         :    0.0000000

LOEWDIN ATOMIC CHARGES AND SPIN POPULATIONS
-------------------------------------------
   0 C :   -0.179677    0.923070
   1 H :    0.054971    0.027028
   2 H :    0.089293    0.015093
   3 H :    0.035413    0.034809

  Mayer bond orders larger than 0.100000
B(  0-C ,  1-H ) :   0.9754 B(  0-C ,  2-H ) :   0.9715 B(  0-C ,  3-H ) :   0.9722

FINAL SINGLE POINT ENERGY       -39.817268993431

DIPOLE MOMENT
-------------
                                X             Y             Z
Electronic contribution:     -0.00428      -0.22464       0.02319
Nuclear contribution   :      0.02281       0.24856      -0.04541
                        -----------------------------------------
Total Dipole Moment    :      0.01853       0.02392      -0.02223
                        -----------------------------------------
Magnitude (a.u.)       :      0.03755
Magnitude (Debye)      :      0.09544

Rotational constants in cm-1:    10.587127     7.755083     4.480210
Rotational constants in MHz : 317394.096190 232491.540519 134313.316901

                             ****ORCA TERMINATED NORMALLY****
TOTAL RUN TIME: 0 days 0 hours 0 minutes 24 seconds 369 msec
