                         Program Version 5.0.3 -  RELEASE  -
|  1> !B3LYP EPR-III Autoaux
|  2> !PAL4
|  3>
|  4> * xyz 0 2
|  5>  C    -71.0770181801    -95.4795305259    -28.2445651884
|  6>  H    -70.0507995063    -95.8869400813    -28.2523304537
|  7>  H    -71.0660444711    -94.2803154908    -28.1087747281
|  8>  H    -71.7869897211    -96.2684378734    -28.3226721934
|  9> *
| 10>
| 11> %EPRNMR
| 12>         GTENSOR   TRUE
| 13>         NUCLEI    = ALL H {AISO, ADIP, AORB}
| 14>         NUCLEI    = ALL C {AISO, ADIP, AORB}
| 15> END
| 16>
| 17>
| 18>                          ****END OF INPUT****

CARTESIAN COORDINATES (ANGSTROEM)
---------------------------------
  C    -71.077018  -95.479531  -28.244565
  H    -70.050800  -95.886940  -28.252330
  H    -71.066044  -94.280315  -28.108775
  H    -71.786990  -96.268438  -28.322672

 Total Charge           Charge          ....    0
 Multiplicity           Mult            ....    2
 Number of Electrons    NEL             ....    9
 Basis Dimension        Dim             ....   73

ORBITAL ENERGIES
----------------
                 SPIN UP ORBITALS
  NO   OCC          E(Eh)            E(eV)
   0   1.0000     -10.196995      -277.4743
   1   1.0000      -0.679427       -18.4881
   2   1.0000      -0.433043       -11.7837
   3   1.0000      -0.389779       -10.6064
   4   1.0000      -0.235301        -6.4029
   5   0.0000      -0.001937        -0.0527
   6   0.0000       0.032898         0.8952
   7   0.0000       0.039294         1.0693
   8   0.0000       0.047204         1.2845
   9   0.0000       0.065198         1.7741

                 SPIN DOWN ORBITALS
  NO   OCC          E(Eh)            E(eV)
   0   1.0000     -10.182249      -277.0731
   1   1.0000      -0.639755       -17.4086
   2   1.0000      -0.424319       -11.5463
   3   1.0000      -0.380086       -10.3427
   4   0.0000      -0.077103        -2.0981
   5   0.0000       0.001924         0.0523
   6   0.0000       0.032860         0.8942
   7   0.0000       0.038973         1.0605
   8   0.0000       0.060566         1.6481

MULLIKEN ATOMIC CHARGES AND SPIN POPULATIONS
--------------------------------------------
   0 C :   -0.436775    1.115667
   1 H :    0.128965   -0.037186
   2 H :    0.152158   -0.044521
   3 H :    0.155652   -0.033959
Sum of atomic charges         :   -0.0000000

LOEWDIN ATOMIC CHARGES AND SPIN POPULATIONS
-------------------------------------------
   0 C :   -0.188428    0.927257
   1 H :    0.050810    0.028102
   2 H :    0.100138    0.010749
   3 H :    0.037480    0.033892

  Mayer bond orders larger than 0.100000
B(  0-C ,  1-H ) :   0.9749 B(  0-C ,  2-H ) :   0.9673 B(  0-C ,  3-H ) :   0.9717

FINAL SINGLE POINT ENERGY       -39.812690906104

DIPOLE MOMENT
-------------
                                X             Y             Z
Electronic contribution:     -0.21009      -0.01914      -0.02644
Nuclear contribution   :      0.24525       0.00217       0.03741
                        -----------------------------------------
Total Dipole Moment    :      0.03515      -0.01697       0.01097
                        -----------------------------------------
Magnitude (a.u.)       :      0.04055
Magnitude (Debye)      :      0.10306

Rotational constants in cm-1:    11.026138     7.319683     4.400388
Rotational constants in MHz : 330555.287382 219438.570266 131920.325033

                             ****ORCA TERMINATED NORMALLY****
TOTAL RUN TIME: 0 days 0 hours 0 minutes 34 seconds 953 msec
