                         Program Version 5.0.3 -  RELEASE  -
|  1> !B3LYP EPR-III Autoaux
|  2> !PAL4
|  3>
|  4> * xyz 0 2
|  5>  C    -78.0161216674   -103.9524267379    -29.8915041251
|  6>  H    -77.1178596061   -104.6007774844    -29.9325125564
|  7>  H    -77.7588323828   -102.7998183987    -29.7783972262
|  8>  H    -79.0333715987   -104.3136898583    -29.9620547430
|  9> *
| 10>
| 11> %EPRNMR
| 12>         GTENSOR   TRUE
| 13>         NUCLEI    = ALL H {AISO, ADIP, AORB}
| 14>         NUCLEI    = ALL C {AISO, ADIP, AORB}
| 15> END
| 16>
| 17>
| 18>                          ****END OF INPUT****

CARTESIAN COORDINATES (ANGSTROEM)
---------------------------------
  C    -78.016122  -103.952427  -29.891504
  H    -77.117860  -104.600777  -29.932513
  H    -77.758832  -102.799818  -29.778397
  H    -79.033372  -104.313690  -29.962055

 Total Charge           Charge          ....    0
 Multiplicity           Mult            ....    2
 Number of Electrons    NEL             ....    9
 Basis Dimension        Dim             ....   73

ORBITAL ENERGIES
----------------
                 SPIN UP ORBITALS
  NO   OCC          E(Eh)            E(eV)
   0   1.0000     -10.197601      -277.4908
   1   1.0000      -0.676569       -18.4104
   2   1.0000      -0.429174       -11.6784
   3   1.0000      -0.397470       -10.8157
   4   1.0000      -0.235167        -6.3992
   5   0.0000      -0.000987        -0.0269
   6   0.0000       0.035156         0.9566
   7   0.0000       0.037851         1.0300
   8   0.0000       0.047232         1.2852
   9   0.0000       0.078663         2.1405

                 SPIN DOWN ORBITALS
  NO   OCC          E(Eh)            E(eV)
   0   1.0000     -10.182883      -277.0903
   1   1.0000      -0.636525       -17.3207
   2   1.0000      -0.420005       -11.4289
   3   1.0000      -0.388655       -10.5758
   4   0.0000      -0.077021        -2.0958
   5   0.0000       0.002691         0.0732
   6   0.0000       0.034877         0.9490
   7   0.0000       0.037618         1.0236
   8   0.0000       0.060605         1.6492

MULLIKEN ATOMIC CHARGES AND SPIN POPULATIONS
--------------------------------------------
   0 C :   -0.427475    1.112204
   1 H :    0.142906   -0.036568
   2 H :    0.133743   -0.041978
   3 H :    0.150827   -0.033658
Sum of atomic charges         :    0.0000000

LOEWDIN ATOMIC CHARGES AND SPIN POPULATIONS
-------------------------------------------
   0 C :   -0.185575    0.927046
   1 H :    0.055464    0.026884
   2 H :    0.085886    0.014910
   3 H :    0.044225    0.031159

  Mayer bond orders larger than 0.100000
B(  0-C ,  1-H ) :   0.9713 B(  0-C ,  2-H ) :   0.9720 B(  0-C ,  3-H ) :   0.9702

FINAL SINGLE POINT ENERGY       -39.821452645536

DIPOLE MOMENT
-------------
                                X             Y             Z
Electronic contribution:     -0.09920      -0.11681      -0.00643
Nuclear contribution   :      0.10365       0.10717       0.00116
                        -----------------------------------------
Total Dipole Moment    :      0.00445      -0.00964      -0.00527
                        -----------------------------------------
Magnitude (a.u.)       :      0.01185
Magnitude (Debye)      :      0.03012

Rotational constants in cm-1:     9.210609     8.410717     4.396416
Rotational constants in MHz : 276127.109097 252146.966176 131801.232031

                             ****ORCA TERMINATED NORMALLY****
TOTAL RUN TIME: 0 days 0 hours 0 minutes 19 seconds 830 msec
