                         Program Version 5.0.3 -  RELEASE  -
|  1> !B3LYP EPR-III Autoaux
|  2> !PAL4
|  3>
|  4> * xyz 0 2
|  5>  C    -10.5686288644    -26.9186965526    -13.1424393239
|  6>  H    -10.8838931638    -26.2412593891    -12.3882811797
|  7>  H    -11.0367927636    -27.8958619629    -13.1753035204
|  8>  H     -9.7294841284    -26.5919474058    -13.6881782068
|  9> *
| 10>
| 11> %EPRNMR
| 12>         GTENSOR   TRUE
| 13>         NUCLEI    = ALL H {AISO, ADIP, AORB}
| 14>         NUCLEI    = ALL C {AISO, ADIP, AORB}
| 15> END
| 16>
| 17>
| 18>                          ****END OF INPUT****

CARTESIAN COORDINATES (ANGSTROEM)
---------------------------------
  C    -10.568629  -26.918697  -13.142439
  H    -10.883893  -26.241259  -12.388281
  H    -11.036793  -27.895862  -13.175304
  H     -9.729484  -26.591947  -13.688178

 Total Charge           Charge          ....    0
 Multiplicity           Mult            ....    2
 Number of Electrons    NEL             ....    9
 Basis Dimension        Dim             ....   73

ORBITAL ENERGIES
----------------
                 SPIN UP ORBITALS
  NO   OCC          E(Eh)            E(eV)
   0   1.0000     -10.179932      -277.0100
   1   1.0000      -0.691818       -18.8253
   2   1.0000      -0.435465       -11.8496
   3   1.0000      -0.415277       -11.3003
   4   1.0000      -0.235216        -6.4005
   5   0.0000       0.001379         0.0375
   6   0.0000       0.035623         0.9694
   7   0.0000       0.038025         1.0347
   8   0.0000       0.047555         1.2940
   9   0.0000       0.088323         2.4034

                 SPIN DOWN ORBITALS
  NO   OCC          E(Eh)            E(eV)
   0   1.0000     -10.165570      -276.6192
   1   1.0000      -0.652671       -17.7601
   2   1.0000      -0.426021       -11.5926
   3   1.0000      -0.405383       -11.0310
   4   0.0000      -0.077737        -2.1153
   5   0.0000       0.004368         0.1189
   6   0.0000       0.035249         0.9592
   7   0.0000       0.037586         1.0228
   8   0.0000       0.060753         1.6532

MULLIKEN ATOMIC CHARGES AND SPIN POPULATIONS
--------------------------------------------
   0 C :   -0.427682    1.099780
   1 H :    0.136743   -0.033510
   2 H :    0.145663   -0.033814
   3 H :    0.145276   -0.032455
Sum of atomic charges         :    0.0000000

LOEWDIN ATOMIC CHARGES AND SPIN POPULATIONS
-------------------------------------------
   0 C :   -0.137737    0.901106
   1 H :    0.042523    0.033969
   2 H :    0.055634    0.029808
   3 H :    0.039580    0.035117

  Mayer bond orders larger than 0.100000
B(  0-C ,  1-H ) :   0.9804 B(  0-C ,  2-H ) :   0.9786 B(  0-C ,  3-H ) :   0.9796

FINAL SINGLE POINT ENERGY       -39.826733510186

DIPOLE MOMENT
-------------
                                X             Y             Z
Electronic contribution:     -0.01719      -0.02399      -0.09592
Nuclear contribution   :      0.04176       0.02025       0.13158
                        -----------------------------------------
Total Dipole Moment    :      0.02457      -0.00374       0.03566
                        -----------------------------------------
Magnitude (a.u.)       :      0.04346
Magnitude (Debye)      :      0.11047

Rotational constants in cm-1:    10.746560     9.001773     4.914182
Rotational constants in MHz : 322173.760709 269866.375876 147323.475252

                             ****ORCA TERMINATED NORMALLY****
TOTAL RUN TIME: 0 days 0 hours 0 minutes 25 seconds 15 msec
