                         Program Version 5.0.3 -  RELEASE  -
|  1> !B3LYP EPR-III Autoaux
|  2> !PAL4
|  3>
|  4> * xyz 0 2
|  5>  C    -20.1286039854    -37.6704412141    -15.6018483508
|  6>  H    -21.1461790443    -37.6012214205    -15.7177464948
|  7>  H    -19.4373567219    -38.5623325998    -15.8822424593
|  8>  H    -19.7327290815    -36.7659663529    -15.0588664646
|  9> *
| 10>
| 11> %EPRNMR
| 12>         GTENSOR   TRUE
| 13>         NUCLEI    = ALL H {AISO, ADIP, AORB}
| 14>         NUCLEI    = ALL C {AISO, ADIP, AORB}
| 15> END
| 16>
| 17>
| 18>                          ****END OF INPUT****

CARTESIAN COORDINATES (ANGSTROEM)
---------------------------------
  C    -20.128604  -37.670441  -15.601848
  H    -21.146179  -37.601221  -15.717746
  H    -19.437357  -38.562333  -15.882242
  H    -19.732729  -36.765966  -15.058866

 Total Charge           Charge          ....    0
 Multiplicity           Mult            ....    2
 Number of Electrons    NEL             ....    9
 Basis Dimension        Dim             ....   73

ORBITAL ENERGIES
----------------
                 SPIN UP ORBITALS
  NO   OCC          E(Eh)            E(eV)
   0   1.0000     -10.191303      -277.3195
   1   1.0000      -0.683612       -18.6020
   2   1.0000      -0.429539       -11.6883
   3   1.0000      -0.403595       -10.9824
   4   1.0000      -0.235179        -6.3995
   5   0.0000      -0.000369        -0.0100
   6   0.0000       0.034968         0.9515
   7   0.0000       0.038088         1.0364
   8   0.0000       0.047333         1.2880
   9   0.0000       0.078277         2.1300

                 SPIN DOWN ORBITALS
  NO   OCC          E(Eh)            E(eV)
   0   1.0000     -10.176699      -276.9221
   1   1.0000      -0.644083       -17.5264
   2   1.0000      -0.420168       -11.4334
   3   1.0000      -0.394275       -10.7288
   4   0.0000      -0.077246        -2.1020
   5   0.0000       0.003099         0.0843
   6   0.0000       0.034776         0.9463
   7   0.0000       0.037722         1.0265
   8   0.0000       0.060642         1.6502

MULLIKEN ATOMIC CHARGES AND SPIN POPULATIONS
--------------------------------------------
   0 C :   -0.430256    1.108979
   1 H :    0.148996   -0.031692
   2 H :    0.147963   -0.039199
   3 H :    0.133297   -0.038088
Sum of atomic charges         :    0.0000000

LOEWDIN ATOMIC CHARGES AND SPIN POPULATIONS
-------------------------------------------
   0 C :   -0.167862    0.917771
   1 H :    0.017107    0.040587
   2 H :    0.084496    0.017700
   3 H :    0.066259    0.023942

  Mayer bond orders larger than 0.100000
B(  0-C ,  1-H ) :   0.9744 B(  0-C ,  2-H ) :   0.9709 B(  0-C ,  3-H ) :   0.9764

FINAL SINGLE POINT ENERGY       -39.819070729239

DIPOLE MOMENT
-------------
                                X             Y             Z
Electronic contribution:     -0.06820      -0.06312      -0.08746
Nuclear contribution   :      0.05212       0.06131       0.10994
                        -----------------------------------------
Total Dipole Moment    :     -0.01608      -0.00181       0.02248
                        -----------------------------------------
Magnitude (a.u.)       :      0.02769
Magnitude (Debye)      :      0.07039

Rotational constants in cm-1:    10.652961     7.944877     4.555494
Rotational constants in MHz : 319367.733035 238181.413141 136570.263183

                             ****ORCA TERMINATED NORMALLY****
TOTAL RUN TIME: 0 days 0 hours 0 minutes 18 seconds 727 msec
