                         Program Version 5.0.3 -  RELEASE  -
|  1> !B3LYP EPR-III Autoaux
|  2> !PAL4
|  3>
|  4> * xyz 0 2
|  5>  C    -41.1880137176    -61.3492906595    -20.9446811792
|  6>  H    -40.8596027444    -62.3167557795    -20.9343311715
|  7>  H    -40.3690106281    -60.6247918798    -20.9682601704
|  8>  H    -42.1972529420    -61.0659324640    -20.9624541943
|  9> *
| 10>
| 11> %EPRNMR
| 12>         GTENSOR   TRUE
| 13>         NUCLEI    = ALL H {AISO, ADIP, AORB}
| 14>         NUCLEI    = ALL C {AISO, ADIP, AORB}
| 15> END
| 16>
| 17>
| 18>                          ****END OF INPUT****

CARTESIAN COORDINATES (ANGSTROEM)
---------------------------------
  C    -41.188014  -61.349291  -20.944681
  H    -40.859603  -62.316756  -20.934331
  H    -40.369011  -60.624792  -20.968260
  H    -42.197253  -61.065932  -20.962454

 Total Charge           Charge          ....    0
 Multiplicity           Mult            ....    2
 Number of Electrons    NEL             ....    9
 Basis Dimension        Dim             ....   73

ORBITAL ENERGIES
----------------
                 SPIN UP ORBITALS
  NO   OCC          E(Eh)            E(eV)
   0   1.0000     -10.176248      -276.9098
   1   1.0000      -0.695190       -18.9171
   2   1.0000      -0.441708       -12.0195
   3   1.0000      -0.414993       -11.2925
   4   1.0000      -0.234726        -6.3872
   5   0.0000       0.001684         0.0458
   6   0.0000       0.035591         0.9685
   7   0.0000       0.038016         1.0345
   8   0.0000       0.047612         1.2956
   9   0.0000       0.090697         2.4680

                 SPIN DOWN ORBITALS
  NO   OCC          E(Eh)            E(eV)
   0   1.0000     -10.161959      -276.5210
   1   1.0000      -0.656023       -17.8513
   2   1.0000      -0.431955       -11.7541
   3   1.0000      -0.405256       -11.0276
   4   0.0000      -0.077600        -2.1116
   5   0.0000       0.004608         0.1254
   6   0.0000       0.035184         0.9574
   7   0.0000       0.037570         1.0223
   8   0.0000       0.060797         1.6544

MULLIKEN ATOMIC CHARGES AND SPIN POPULATIONS
--------------------------------------------
   0 C :   -0.428647    1.098653
   1 H :    0.144627   -0.031350
   2 H :    0.135763   -0.035754
   3 H :    0.148257   -0.031549
Sum of atomic charges         :    0.0000000

LOEWDIN ATOMIC CHARGES AND SPIN POPULATIONS
-------------------------------------------
   0 C :   -0.125219    0.895677
   1 H :    0.024196    0.040467
   2 H :    0.060951    0.028355
   3 H :    0.040072    0.035501

  Mayer bond orders larger than 0.100000
B(  0-C ,  1-H ) :   0.9810 B(  0-C ,  2-H ) :   0.9817 B(  0-C ,  3-H ) :   0.9803

FINAL SINGLE POINT ENERGY       -39.824696342325

DIPOLE MOMENT
-------------
                                X             Y             Z
Electronic contribution:     -0.09635      -0.03958       0.01458
Nuclear contribution   :      0.10356       0.03027      -0.02324
                        -----------------------------------------
Total Dipole Moment    :      0.00721      -0.00931      -0.00865
                        -----------------------------------------
Magnitude (a.u.)       :      0.01461
Magnitude (Debye)      :      0.03714

Rotational constants in cm-1:    10.848885     9.308582     5.010679
Rotational constants in MHz : 325241.379170 279064.280859 150216.372934

                             ****ORCA TERMINATED NORMALLY****
TOTAL RUN TIME: 0 days 0 hours 0 minutes 18 seconds 819 msec
