                         Program Version 5.0.3 -  RELEASE  -
|  1> !B3LYP EPR-III Autoaux
|  2> !PAL4
|  3>
|  4> * xyz 0 2
|  5>  C    -49.1434961982    -70.2323117341    -22.9396710655
|  6>  H    -48.1692168056    -70.7295565840    -23.0233398760
|  7>  H    -49.2053450477    -69.1762029513    -22.8161379756
|  8>  H    -50.0142409308    -70.9179844552    -23.0754759547
|  9> *
| 10>
| 11> %EPRNMR
| 12>         GTENSOR   TRUE
| 13>         NUCLEI    = ALL H {AISO, ADIP, AORB}
| 14>         NUCLEI    = ALL C {AISO, ADIP, AORB}
| 15> END
| 16>
| 17>
| 18>                          ****END OF INPUT****

CARTESIAN COORDINATES (ANGSTROEM)
---------------------------------
  C    -49.143496  -70.232312  -22.939671
  H    -48.169217  -70.729557  -23.023340
  H    -49.205345  -69.176203  -22.816138
  H    -50.014241  -70.917984  -23.075476

 Total Charge           Charge          ....    0
 Multiplicity           Mult            ....    2
 Number of Electrons    NEL             ....    9
 Basis Dimension        Dim             ....   73

ORBITAL ENERGIES
----------------
                 SPIN UP ORBITALS
  NO   OCC          E(Eh)            E(eV)
   0   1.0000     -10.188070      -277.2315
   1   1.0000      -0.684355       -18.6223
   2   1.0000      -0.431957       -11.7541
   3   1.0000      -0.408041       -11.1033
   4   1.0000      -0.234953        -6.3934
   5   0.0000       0.000563         0.0153
   6   0.0000       0.035515         0.9664
   7   0.0000       0.037902         1.0314
   8   0.0000       0.047423         1.2905
   9   0.0000       0.085724         2.3327

                 SPIN DOWN ORBITALS
  NO   OCC          E(Eh)            E(eV)
   0   1.0000     -10.173562      -276.8367
   1   1.0000      -0.644777       -17.5453
   2   1.0000      -0.422635       -11.5005
   3   1.0000      -0.398687       -10.8488
   4   0.0000      -0.077304        -2.1036
   5   0.0000       0.003814         0.1038
   6   0.0000       0.035173         0.9571
   7   0.0000       0.037529         1.0212
   8   0.0000       0.060711         1.6520

MULLIKEN ATOMIC CHARGES AND SPIN POPULATIONS
--------------------------------------------
   0 C :   -0.427269    1.105322
   1 H :    0.137792   -0.035784
   2 H :    0.148948   -0.032620
   3 H :    0.140530   -0.036918
Sum of atomic charges         :   -0.0000000

LOEWDIN ATOMIC CHARGES AND SPIN POPULATIONS
-------------------------------------------
   0 C :   -0.160574    0.912974
   1 H :    0.054828    0.028454
   2 H :    0.041097    0.033450
   3 H :    0.064648    0.025122

  Mayer bond orders larger than 0.100000
B(  0-C ,  1-H ) :   0.9766 B(  0-C ,  2-H ) :   0.9751 B(  0-C ,  3-H ) :   0.9757

FINAL SINGLE POINT ENERGY       -39.826884314622

DIPOLE MOMENT
-------------
                                X             Y             Z
Electronic contribution:     -0.02430       0.09380       0.04981
Nuclear contribution   :      0.03124      -0.09504      -0.07191
                        -----------------------------------------
Total Dipole Moment    :      0.00695      -0.00124      -0.02209
                        -----------------------------------------
Magnitude (a.u.)       :      0.02319
Magnitude (Debye)      :      0.05895

Rotational constants in cm-1:     9.850067     8.864273     4.669773
Rotational constants in MHz : 295297.574047 265744.220986 139996.280769

                             ****ORCA TERMINATED NORMALLY****
TOTAL RUN TIME: 0 days 0 hours 0 minutes 20 seconds 168 msec
