                         Program Version 5.0.3 -  RELEASE  -
|  1> !B3LYP EPR-III Autoaux
|  2> !PAL4
|  3>
|  4> * xyz 0 2
|  5>  C    -12.8828341664    -29.5591374254    -13.7177469299
|  6>  H    -12.0520114163    -29.6526889490    -14.5246831600
|  7>  H    -12.9934372220    -28.6391853251    -13.2149687431
|  8>  H    -13.6661925927    -30.2231613016    -13.5574486149
|  9> *
| 10>
| 11> %EPRNMR
| 12>         GTENSOR   TRUE
| 13>         NUCLEI    = ALL H {AISO, ADIP, AORB}
| 14>         NUCLEI    = ALL C {AISO, ADIP, AORB}
| 15> END
| 16>
| 17>
| 18>                          ****END OF INPUT****

CARTESIAN COORDINATES (ANGSTROEM)
---------------------------------
  C    -12.882834  -29.559137  -13.717747
  H    -12.052011  -29.652689  -14.524683
  H    -12.993437  -28.639185  -13.214969
  H    -13.666193  -30.223161  -13.557449

 Total Charge           Charge          ....    0
 Multiplicity           Mult            ....    2
 Number of Electrons    NEL             ....    9
 Basis Dimension        Dim             ....   73

ORBITAL ENERGIES
----------------
                 SPIN UP ORBITALS
  NO   OCC          E(Eh)            E(eV)
   0   1.0000     -10.185346      -277.1573
   1   1.0000      -0.688653       -18.7392
   2   1.0000      -0.427938       -11.6448
   3   1.0000      -0.413561       -11.2536
   4   1.0000      -0.235950        -6.4205
   5   0.0000       0.000463         0.0126
   6   0.0000       0.035714         0.9718
   7   0.0000       0.037734         1.0268
   8   0.0000       0.047426         1.2905
   9   0.0000       0.080116         2.1801

                 SPIN DOWN ORBITALS
  NO   OCC          E(Eh)            E(eV)
   0   1.0000     -10.170845      -276.7628
   1   1.0000      -0.649494       -17.6736
   2   1.0000      -0.418342       -11.3837
   3   1.0000      -0.403972       -10.9926
   4   0.0000      -0.077903        -2.1198
   5   0.0000       0.003660         0.0996
   6   0.0000       0.035457         0.9648
   7   0.0000       0.037345         1.0162
   8   0.0000       0.060645         1.6502

MULLIKEN ATOMIC CHARGES AND SPIN POPULATIONS
--------------------------------------------
   0 C :   -0.427270    1.102531
   1 H :    0.141807   -0.038558
   2 H :    0.138996   -0.032712
   3 H :    0.146467   -0.031260
Sum of atomic charges         :    0.0000000

LOEWDIN ATOMIC CHARGES AND SPIN POPULATIONS
-------------------------------------------
   0 C :   -0.150486    0.908625
   1 H :    0.085936    0.018000
   2 H :    0.035633    0.035498
   3 H :    0.028918    0.037878

  Mayer bond orders larger than 0.100000
B(  0-C ,  1-H ) :   0.9749 B(  0-C ,  2-H ) :   0.9781 B(  0-C ,  3-H ) :   0.9775

FINAL SINGLE POINT ENERGY       -39.821829787405

DIPOLE MOMENT
-------------
                                X             Y             Z
Electronic contribution:      0.00466      -0.08797       0.08072
Nuclear contribution   :     -0.04732       0.12170      -0.10782
                        -----------------------------------------
Total Dipole Moment    :     -0.04266       0.03373      -0.02710
                        -----------------------------------------
Magnitude (a.u.)       :      0.06077
Magnitude (Debye)      :      0.15445

Rotational constants in cm-1:    10.843515     8.332284     4.741280
Rotational constants in MHz : 325080.389711 249795.594617 142139.996927

                             ****ORCA TERMINATED NORMALLY****
TOTAL RUN TIME: 0 days 0 hours 0 minutes 21 seconds 744 msec
