                         Program Version 5.0.3 -  RELEASE  -
|  1> !B3LYP EPR-III Autoaux
|  2> !PAL4
|  3>
|  4> * xyz 0 2
|  5>  C    -73.3050553422    -98.2210433914    -28.7709333547
|  6>  H    -73.3296916132    -97.1688847534    -28.6706889589
|  7>  H    -74.2404263829    -98.6509258629    -28.8364577573
|  8>  H    -72.3355443384    -98.7356483189    -28.7705403726
|  9> *
| 10>
| 11> %EPRNMR
| 12>         GTENSOR   TRUE
| 13>         NUCLEI    = ALL H {AISO, ADIP, AORB}
| 14>         NUCLEI    = ALL C {AISO, ADIP, AORB}
| 15> END
| 16>
| 17>
| 18>                          ****END OF INPUT****

CARTESIAN COORDINATES (ANGSTROEM)
---------------------------------
  C    -73.305055  -98.221043  -28.770933
  H    -73.329692  -97.168885  -28.670689
  H    -74.240426  -98.650926  -28.836458
  H    -72.335544  -98.735648  -28.770540

 Total Charge           Charge          ....    0
 Multiplicity           Mult            ....    2
 Number of Electrons    NEL             ....    9
 Basis Dimension        Dim             ....   73

ORBITAL ENERGIES
----------------
                 SPIN UP ORBITALS
  NO   OCC          E(Eh)            E(eV)
   0   1.0000     -10.178486      -276.9707
   1   1.0000      -0.693273       -18.8649
   2   1.0000      -0.435829       -11.8595
   3   1.0000      -0.416959       -11.3460
   4   1.0000      -0.234648        -6.3851
   5   0.0000       0.001471         0.0400
   6   0.0000       0.035630         0.9696
   7   0.0000       0.037926         1.0320
   8   0.0000       0.047584         1.2948
   9   0.0000       0.087991         2.3944

                 SPIN DOWN ORBITALS
  NO   OCC          E(Eh)            E(eV)
   0   1.0000     -10.164157      -276.5808
   1   1.0000      -0.654090       -17.7987
   2   1.0000      -0.426326       -11.6009
   3   1.0000      -0.407071       -11.0770
   4   0.0000      -0.077468        -2.1080
   5   0.0000       0.004459         0.1213
   6   0.0000       0.035259         0.9594
   7   0.0000       0.037474         1.0197
   8   0.0000       0.060794         1.6543

MULLIKEN ATOMIC CHARGES AND SPIN POPULATIONS
--------------------------------------------
   0 C :   -0.429207    1.100270
   1 H :    0.137422   -0.033574
   2 H :    0.146503   -0.031637
   3 H :    0.145283   -0.035058
Sum of atomic charges         :   -0.0000000

LOEWDIN ATOMIC CHARGES AND SPIN POPULATIONS
-------------------------------------------
   0 C :   -0.133056    0.899158
   1 H :    0.041350    0.034632
   2 H :    0.028734    0.038793
   3 H :    0.062973    0.027417

  Mayer bond orders larger than 0.100000
B(  0-C ,  1-H ) :   0.9809 B(  0-C ,  2-H ) :   0.9802 B(  0-C ,  3-H ) :   0.9787

FINAL SINGLE POINT ENERGY       -39.825308646121

DIPOLE MOMENT
-------------
                                X             Y             Z
Electronic contribution:     -0.01471      -0.06882      -0.01829
Nuclear contribution   :      0.00712       0.08070       0.02632
                        -----------------------------------------
Total Dipole Moment    :     -0.00759       0.01188       0.00803
                        -----------------------------------------
Magnitude (a.u.)       :      0.01623
Magnitude (Debye)      :      0.04124

Rotational constants in cm-1:    10.993632     8.969398     4.939933
Rotational constants in MHz : 329580.796320 268895.777192 148095.478864

                             ****ORCA TERMINATED NORMALLY****
TOTAL RUN TIME: 0 days 0 hours 0 minutes 26 seconds 943 msec
