                         Program Version 5.0.3 -  RELEASE  -
|  1> !B3LYP EPR-III Autoaux
|  2> !PAL4
|  3>
|  4> * xyz 0 2
|  5>  C    -23.9149296975    -41.9624147638    -16.5820011414
|  6>  H    -23.4653968359    -41.0354270217    -16.5461096156
|  7>  H    -25.0031096011    -41.8924404416    -16.2310869321
|  8>  H    -23.4433731660    -42.9101398250    -16.8685376111
|  9> *
| 10>
| 11> %EPRNMR
| 12>         GTENSOR   TRUE
| 13>         NUCLEI    = ALL H {AISO, ADIP, AORB}
| 14>         NUCLEI    = ALL C {AISO, ADIP, AORB}
| 15> END
| 16>
| 17>
| 18>                          ****END OF INPUT****

CARTESIAN COORDINATES (ANGSTROEM)
---------------------------------
  C    -23.914930  -41.962415  -16.582001
  H    -23.465397  -41.035427  -16.546110
  H    -25.003110  -41.892440  -16.231087
  H    -23.443373  -42.910140  -16.868538

 Total Charge           Charge          ....    0
 Multiplicity           Mult            ....    2
 Number of Electrons    NEL             ....    9
 Basis Dimension        Dim             ....   73

ORBITAL ENERGIES
----------------
                 SPIN UP ORBITALS
  NO   OCC          E(Eh)            E(eV)
   0   1.0000     -10.187358      -277.2121
   1   1.0000      -0.686285       -18.6748
   2   1.0000      -0.437495       -11.9048
   3   1.0000      -0.402838       -10.9618
   4   1.0000      -0.235031        -6.3955
   5   0.0000       0.000400         0.0109
   6   0.0000       0.035003         0.9525
   7   0.0000       0.038267         1.0413
   8   0.0000       0.047411         1.2901
   9   0.0000       0.083798         2.2803

                 SPIN DOWN ORBITALS
  NO   OCC          E(Eh)            E(eV)
   0   1.0000     -10.172849      -276.8173
   1   1.0000      -0.646772       -17.5996
   2   1.0000      -0.428034       -11.6474
   3   1.0000      -0.393490       -10.7074
   4   0.0000      -0.077374        -2.1054
   5   0.0000       0.003668         0.0998
   6   0.0000       0.034684         0.9438
   7   0.0000       0.037903         1.0314
   8   0.0000       0.060684         1.6513

MULLIKEN ATOMIC CHARGES AND SPIN POPULATIONS
--------------------------------------------
   0 C :   -0.429236    1.106076
   1 H :    0.147224   -0.032145
   2 H :    0.132024   -0.039418
   3 H :    0.149988   -0.034514
Sum of atomic charges         :    0.0000000

LOEWDIN ATOMIC CHARGES AND SPIN POPULATIONS
-------------------------------------------
   0 C :   -0.156300    0.911748
   1 H :    0.022030    0.039513
   2 H :    0.076073    0.020796
   3 H :    0.058197    0.027943

  Mayer bond orders larger than 0.100000
B(  0-C ,  1-H ) :   0.9763 B(  0-C ,  2-H ) :   0.9778 B(  0-C ,  3-H ) :   0.9745

FINAL SINGLE POINT ENERGY       -39.822515600984

DIPOLE MOMENT
-------------
                                X             Y             Z
Electronic contribution:      0.13446      -0.02455      -0.06398
Nuclear contribution   :     -0.12523       0.03690       0.07515
                        -----------------------------------------
Total Dipole Moment    :      0.00923       0.01235       0.01117
                        -----------------------------------------
Magnitude (a.u.)       :      0.01904
Magnitude (Debye)      :      0.04840

Rotational constants in cm-1:    10.530921     8.416052     4.678824
Rotational constants in MHz : 315709.076377 252306.880499 140267.623021

                             ****ORCA TERMINATED NORMALLY****
TOTAL RUN TIME: 0 days 0 hours 0 minutes 29 seconds 673 msec
