                         Program Version 5.0.3 -  RELEASE  -
|  1> !B3LYP EPR-III Autoaux
|  2> !PAL4
|  3>
|  4> * xyz 0 2
|  5>  C    -67.0791519027    -90.6842333404    -27.3360230046
|  6>  H    -67.9397870882    -90.0991554743    -27.2967711458
|  7>  H    -67.3674451178    -91.7591406825    -27.4614739414
|  8>  H    -66.1830813561    -90.1829700234    -27.2701608922
|  9> *
| 10>
| 11> %EPRNMR
| 12>         GTENSOR   TRUE
| 13>         NUCLEI    = ALL H {AISO, ADIP, AORB}
| 14>         NUCLEI    = ALL C {AISO, ADIP, AORB}
| 15> END
| 16>
| 17>
| 18>                          ****END OF INPUT****

CARTESIAN COORDINATES (ANGSTROEM)
---------------------------------
  C    -67.079152  -90.684233  -27.336023
  H    -67.939787  -90.099155  -27.296771
  H    -67.367445  -91.759141  -27.461474
  H    -66.183081  -90.182970  -27.270161

 Total Charge           Charge          ....    0
 Multiplicity           Mult            ....    2
 Number of Electrons    NEL             ....    9
 Basis Dimension        Dim             ....   73

ORBITAL ENERGIES
----------------
                 SPIN UP ORBITALS
  NO   OCC          E(Eh)            E(eV)
   0   1.0000     -10.178948      -276.9833
   1   1.0000      -0.694188       -18.8898
   2   1.0000      -0.446231       -12.1426
   3   1.0000      -0.404667       -11.0116
   4   1.0000      -0.234897        -6.3919
   5   0.0000       0.001188         0.0323
   6   0.0000       0.034222         0.9312
   7   0.0000       0.039018         1.0617
   8   0.0000       0.047546         1.2938
   9   0.0000       0.081099         2.2068

                 SPIN DOWN ORBITALS
  NO   OCC          E(Eh)            E(eV)
   0   1.0000     -10.164595      -276.5927
   1   1.0000      -0.655071       -17.8254
   2   1.0000      -0.436828       -11.8867
   3   1.0000      -0.394596       -10.7375
   4   0.0000      -0.077626        -2.1123
   5   0.0000       0.004210         0.1146
   6   0.0000       0.033887         0.9221
   7   0.0000       0.038570         1.0495
   8   0.0000       0.060741         1.6529

MULLIKEN ATOMIC CHARGES AND SPIN POPULATIONS
--------------------------------------------
   0 C :   -0.433156    1.102193
   1 H :    0.134739   -0.033301
   2 H :    0.144671   -0.038276
   3 H :    0.153745   -0.030616
Sum of atomic charges         :   -0.0000000

LOEWDIN ATOMIC CHARGES AND SPIN POPULATIONS
-------------------------------------------
   0 C :   -0.134590    0.899812
   1 H :    0.032146    0.037529
   2 H :    0.073702    0.023717
   3 H :    0.028742    0.038942

  Mayer bond orders larger than 0.100000
B(  0-C ,  1-H ) :   0.9810 B(  0-C ,  2-H ) :   0.9795 B(  0-C ,  3-H ) :   0.9803

FINAL SINGLE POINT ENERGY       -39.820429767580

DIPOLE MOMENT
-------------
                                X             Y             Z
Electronic contribution:      0.16042       0.01111       0.01199
Nuclear contribution   :     -0.18951       0.00857      -0.01524
                        -----------------------------------------
Total Dipole Moment    :     -0.02909       0.01968      -0.00325
                        -----------------------------------------
Magnitude (a.u.)       :      0.03527
Magnitude (Debye)      :      0.08965

Rotational constants in cm-1:    11.730556     8.500256     4.928960
Rotational constants in MHz : 351673.223698 254831.264971 147766.506306

                             ****ORCA TERMINATED NORMALLY****
TOTAL RUN TIME: 0 days 0 hours 0 minutes 20 seconds 444 msec
