                         Program Version 5.0.3 -  RELEASE  -
|  1> !B3LYP EPR-III Autoaux
|  2> !PAL4
|  3>
|  4> * xyz 0 2
|  5>  C    -63.0700305450    -85.9295210845    -26.4087094239
|  6>  H    -62.4961880328    -86.8284125988    -26.5052384059
|  7>  H    -62.6617682586    -84.9162027670    -26.2844801182
|  8>  H    -64.1640451634    -86.0107873273    -26.4491541476
|  9> *
| 10>
| 11> %EPRNMR
| 12>         GTENSOR   TRUE
| 13>         NUCLEI    = ALL H {AISO, ADIP, AORB}
| 14>         NUCLEI    = ALL C {AISO, ADIP, AORB}
| 15> END
| 16>
| 17>
| 18>                          ****END OF INPUT****

CARTESIAN COORDINATES (ANGSTROEM)
---------------------------------
  C    -63.070031  -85.929521  -26.408709
  H    -62.496188  -86.828413  -26.505238
  H    -62.661768  -84.916203  -26.284480
  H    -64.164045  -86.010787  -26.449154

 Total Charge           Charge          ....    0
 Multiplicity           Mult            ....    2
 Number of Electrons    NEL             ....    9
 Basis Dimension        Dim             ....   73

ORBITAL ENERGIES
----------------
                 SPIN UP ORBITALS
  NO   OCC          E(Eh)            E(eV)
   0   1.0000     -10.186964      -277.2014
   1   1.0000      -0.685090       -18.6422
   2   1.0000      -0.430279       -11.7085
   3   1.0000      -0.411337       -11.1930
   4   1.0000      -0.234718        -6.3870
   5   0.0000       0.000718         0.0195
   6   0.0000       0.035731         0.9723
   7   0.0000       0.037719         1.0264
   8   0.0000       0.047452         1.2912
   9   0.0000       0.086935         2.3656

                 SPIN DOWN ORBITALS
  NO   OCC          E(Eh)            E(eV)
   0   1.0000     -10.172483      -276.8073
   1   1.0000      -0.645528       -17.5657
   2   1.0000      -0.420979       -11.4554
   3   1.0000      -0.401911       -10.9365
   4   0.0000      -0.077213        -2.1011
   5   0.0000       0.003937         0.1071
   6   0.0000       0.035378         0.9627
   7   0.0000       0.037332         1.0159
   8   0.0000       0.060739         1.6528

MULLIKEN ATOMIC CHARGES AND SPIN POPULATIONS
--------------------------------------------
   0 C :   -0.427216    1.104913
   1 H :    0.146778   -0.033448
   2 H :    0.143653   -0.035590
   3 H :    0.136785   -0.035875
Sum of atomic charges         :   -0.0000000

LOEWDIN ATOMIC CHARGES AND SPIN POPULATIONS
-------------------------------------------
   0 C :   -0.157946    0.911505
   1 H :    0.044318    0.032459
   2 H :    0.058015    0.027723
   3 H :    0.055613    0.028312

  Mayer bond orders larger than 0.100000
B(  0-C ,  1-H ) :   0.9758 B(  0-C ,  2-H ) :   0.9758 B(  0-C ,  3-H ) :   0.9772

FINAL SINGLE POINT ENERGY       -39.827740963839

DIPOLE MOMENT
-------------
                                X             Y             Z
Electronic contribution:      0.07709      -0.02562       0.00538
Nuclear contribution   :     -0.08387       0.02485      -0.00955
                        -----------------------------------------
Total Dipole Moment    :     -0.00678      -0.00077      -0.00417
                        -----------------------------------------
Magnitude (a.u.)       :      0.00800
Magnitude (Debye)      :      0.02032

Rotational constants in cm-1:     9.880341     8.956939     4.698138
Rotational constants in MHz : 296205.171658 268522.275892 140846.646674

                             ****ORCA TERMINATED NORMALLY****
TOTAL RUN TIME: 0 days 0 hours 0 minutes 36 seconds 190 msec
