                         Program Version 5.0.3 -  RELEASE  -
|  1> !B3LYP EPR-III Autoaux
|  2> !PAL4
|  3>
|  4> * xyz 0 2
|  5>  C    -92.9522276502   -122.4894399153    -33.2477284242
|  6>  H    -92.1554663639   -123.2254781319    -33.2672068817
|  7>  H    -92.7789053082   -121.4290960233    -33.1442211911
|  8>  H    -93.9953324570   -122.8748694154    -33.3273298996
|  9> *
| 10>
| 11> %EPRNMR
| 12>         GTENSOR   TRUE
| 13>         NUCLEI    = ALL H {AISO, ADIP, AORB}
| 14>         NUCLEI    = ALL C {AISO, ADIP, AORB}
| 15> END
| 16>
| 17>
| 18>                          ****END OF INPUT****

CARTESIAN COORDINATES (ANGSTROEM)
---------------------------------
  C    -92.952228  -122.489440  -33.247728
  H    -92.155466  -123.225478  -33.267207
  H    -92.778905  -121.429096  -33.144221
  H    -93.995332  -122.874869  -33.327330

 Total Charge           Charge          ....    0
 Multiplicity           Mult            ....    2
 Number of Electrons    NEL             ....    9
 Basis Dimension        Dim             ....   73

ORBITAL ENERGIES
----------------
                 SPIN UP ORBITALS
  NO   OCC          E(Eh)            E(eV)
   0   1.0000     -10.188052      -277.2310
   1   1.0000      -0.684034       -18.6135
   2   1.0000      -0.427959       -11.6453
   3   1.0000      -0.412284       -11.2188
   4   1.0000      -0.234722        -6.3871
   5   0.0000       0.000601         0.0164
   6   0.0000       0.036026         0.9803
   7   0.0000       0.037427         1.0184
   8   0.0000       0.047435         1.2908
   9   0.0000       0.088528         2.4090

                 SPIN DOWN ORBITALS
  NO   OCC          E(Eh)            E(eV)
   0   1.0000     -10.173550      -276.8364
   1   1.0000      -0.644413       -17.5354
   2   1.0000      -0.418605       -11.3908
   3   1.0000      -0.403006       -10.9663
   4   0.0000      -0.077170        -2.0999
   5   0.0000       0.003857         0.1050
   6   0.0000       0.035666         0.9705
   7   0.0000       0.037062         1.0085
   8   0.0000       0.060734         1.6527

MULLIKEN ATOMIC CHARGES AND SPIN POPULATIONS
--------------------------------------------
   0 C :   -0.426544    1.105406
   1 H :    0.143202   -0.034641
   2 H :    0.145792   -0.033947
   3 H :    0.137550   -0.036818
Sum of atomic charges         :    0.0000000

LOEWDIN ATOMIC CHARGES AND SPIN POPULATIONS
-------------------------------------------
   0 C :   -0.160770    0.913080
   1 H :    0.049976    0.030274
   2 H :    0.047763    0.031108
   3 H :    0.063031    0.025539

  Mayer bond orders larger than 0.100000
B(  0-C ,  1-H ) :   0.9756 B(  0-C ,  2-H ) :   0.9752 B(  0-C ,  3-H ) :   0.9762

FINAL SINGLE POINT ENERGY       -39.827889934088

DIPOLE MOMENT
-------------
                                X             Y             Z
Electronic contribution:      0.05490       0.04354       0.00018
Nuclear contribution   :     -0.05473      -0.04581       0.00332
                        -----------------------------------------
Total Dipole Moment    :      0.00017      -0.00227       0.00350
                        -----------------------------------------
Magnitude (a.u.)       :      0.00418
Magnitude (Debye)      :      0.01061

Rotational constants in cm-1:     9.522717     9.147544     4.665800
Rotational constants in MHz : 285483.878275 274236.463876 139877.177984

                             ****ORCA TERMINATED NORMALLY****
TOTAL RUN TIME: 0 days 0 hours 0 minutes 28 seconds 96 msec
