                         Program Version 5.0.3 -  RELEASE  -
|  1> !B3LYP EPR-III Autoaux
|  2> !PAL4
|  3>
|  4> * xyz 0 2
|  5>  C    -74.0972173384    -99.1596342827    -28.9532055847
|  6>  H    -74.7847661588    -98.3150980711    -28.8859378426
|  7>  H    -74.3822419885   -100.1320254519    -29.0534647102
|  8>  H    -72.9943166526    -99.1536876513    -28.9117897342
|  9> *
| 10>
| 11> %EPRNMR
| 12>         GTENSOR   TRUE
| 13>         NUCLEI    = ALL H {AISO, ADIP, AORB}
| 14>         NUCLEI    = ALL C {AISO, ADIP, AORB}
| 15> END
| 16>
| 17>
| 18>                          ****END OF INPUT****

CARTESIAN COORDINATES (ANGSTROEM)
---------------------------------
  C    -74.097217  -99.159634  -28.953206
  H    -74.784766  -98.315098  -28.885938
  H    -74.382242  -100.132025  -29.053465
  H    -72.994317  -99.153688  -28.911790

 Total Charge           Charge          ....    0
 Multiplicity           Mult            ....    2
 Number of Electrons    NEL             ....    9
 Basis Dimension        Dim             ....   73

ORBITAL ENERGIES
----------------
                 SPIN UP ORBITALS
  NO   OCC          E(Eh)            E(eV)
   0   1.0000     -10.181197      -277.0445
   1   1.0000      -0.692110       -18.8333
   2   1.0000      -0.441248       -12.0070
   3   1.0000      -0.406145       -11.0518
   4   1.0000      -0.234805        -6.3894
   5   0.0000       0.000989         0.0269
   6   0.0000       0.034652         0.9429
   7   0.0000       0.038695         1.0529
   8   0.0000       0.047519         1.2931
   9   0.0000       0.083746         2.2788

                 SPIN DOWN ORBITALS
  NO   OCC          E(Eh)            E(eV)
   0   1.0000     -10.166807      -276.6529
   1   1.0000      -0.652967       -17.7681
   2   1.0000      -0.431865       -11.7516
   3   1.0000      -0.396172       -10.7804
   4   0.0000      -0.077478        -2.1083
   5   0.0000       0.004078         0.1110
   6   0.0000       0.034328         0.9341
   7   0.0000       0.038251         1.0409
   8   0.0000       0.060746         1.6530

MULLIKEN ATOMIC CHARGES AND SPIN POPULATIONS
--------------------------------------------
   0 C :   -0.432135    1.103385
   1 H :    0.151868   -0.033829
   2 H :    0.143162   -0.032178
   3 H :    0.137105   -0.037378
Sum of atomic charges         :    0.0000000

LOEWDIN ATOMIC CHARGES AND SPIN POPULATIONS
-------------------------------------------
   0 C :   -0.141383    0.903209
   1 H :    0.059713    0.028372
   2 H :    0.018214    0.041545
   3 H :    0.063457    0.026874

  Mayer bond orders larger than 0.100000
B(  0-C ,  1-H ) :   0.9768 B(  0-C ,  2-H ) :   0.9793 B(  0-C ,  3-H ) :   0.9805

FINAL SINGLE POINT ENERGY       -39.821464333218

DIPOLE MOMENT
-------------
                                X             Y             Z
Electronic contribution:     -0.10022       0.06555      -0.00425
Nuclear contribution   :      0.09768      -0.09137       0.00631
                        -----------------------------------------
Total Dipole Moment    :     -0.00254      -0.02581       0.00206
                        -----------------------------------------
Magnitude (a.u.)       :      0.02602
Magnitude (Debye)      :      0.06614

Rotational constants in cm-1:    11.730235     8.288610     4.856989
Rotational constants in MHz : 351663.594248 248486.266051 145608.853472

                             ****ORCA TERMINATED NORMALLY****
TOTAL RUN TIME: 0 days 0 hours 0 minutes 24 seconds 265 msec
