                         Program Version 5.0.3 -  RELEASE  -
|  1> !B3LYP EPR-III Autoaux
|  2> !PAL4
|  3>
|  4> * xyz 0 2
|  5>  C    -51.0916497798    -72.4017785814    -23.4401245725
|  6>  H    -50.6693503382    -71.3856580503    -23.3990430620
|  7>  H    -52.2165487756    -72.8285453599    -23.3663096689
|  8>  H    -50.3984182307    -73.2118865365    -23.4588109391
|  9> *
| 10>
| 11> %EPRNMR
| 12>         GTENSOR   TRUE
| 13>         NUCLEI    = ALL H {AISO, ADIP, AORB}
| 14>         NUCLEI    = ALL C {AISO, ADIP, AORB}
| 15> END
| 16>
| 17>
| 18>                          ****END OF INPUT****

CARTESIAN COORDINATES (ANGSTROEM)
---------------------------------
  C    -51.091650  -72.401779  -23.440125
  H    -50.669350  -71.385658  -23.399043
  H    -52.216549  -72.828545  -23.366310
  H    -50.398418  -73.211887  -23.458811

 Total Charge           Charge          ....    0
 Multiplicity           Mult            ....    2
 Number of Electrons    NEL             ....    9
 Basis Dimension        Dim             ....   73

ORBITAL ENERGIES
----------------
                 SPIN UP ORBITALS
  NO   OCC          E(Eh)            E(eV)
   0   1.0000     -10.196740      -277.4674
   1   1.0000      -0.678758       -18.4699
   2   1.0000      -0.428517       -11.6605
   3   1.0000      -0.396054       -10.7772
   4   1.0000      -0.235380        -6.4050
   5   0.0000      -0.001759        -0.0479
   6   0.0000       0.034048         0.9265
   7   0.0000       0.038670         1.0523
   8   0.0000       0.047217         1.2848
   9   0.0000       0.068691         1.8692

                 SPIN DOWN ORBITALS
  NO   OCC          E(Eh)            E(eV)
   0   1.0000     -10.182008      -277.0665
   1   1.0000      -0.639017       -17.3885
   2   1.0000      -0.419684       -11.4202
   3   1.0000      -0.386555       -10.5187
   4   0.0000      -0.077140        -2.0991
   5   0.0000       0.002048         0.0557
   6   0.0000       0.033895         0.9223
   7   0.0000       0.038391         1.0447
   8   0.0000       0.060571         1.6482

MULLIKEN ATOMIC CHARGES AND SPIN POPULATIONS
--------------------------------------------
   0 C :   -0.432474    1.113435
   1 H :    0.152598   -0.034993
   2 H :    0.141969   -0.043929
   3 H :    0.137907   -0.034513
Sum of atomic charges         :   -0.0000000

LOEWDIN ATOMIC CHARGES AND SPIN POPULATIONS
-------------------------------------------
   0 C :   -0.185514    0.926477
   1 H :    0.055736    0.027765
   2 H :    0.096504    0.011577
   3 H :    0.033274    0.034181

  Mayer bond orders larger than 0.100000
B(  0-C ,  1-H ) :   0.9703 B(  0-C ,  2-H ) :   0.9702 B(  0-C ,  3-H ) :   0.9728

FINAL SINGLE POINT ENERGY       -39.816007041337

DIPOLE MOMENT
-------------
                                X             Y             Z
Electronic contribution:      0.03812       0.14011      -0.04634
Nuclear contribution   :     -0.00702      -0.16545       0.07211
                        -----------------------------------------
Total Dipole Moment    :      0.03110      -0.02534       0.02577
                        -----------------------------------------
Magnitude (a.u.)       :      0.04768
Magnitude (Debye)      :      0.12119

Rotational constants in cm-1:    10.765056     7.439474     4.405554
Rotational constants in MHz : 322728.271975 223029.809533 132075.198643

                             ****ORCA TERMINATED NORMALLY****
TOTAL RUN TIME: 0 days 0 hours 0 minutes 20 seconds 977 msec
