                         Program Version 5.0.3 -  RELEASE  -
|  1> !B3LYP EPR-III Autoaux
|  2> !PAL4
|  3>
|  4> * xyz 0 2
|  5>  C    -72.6453609988    -97.4198511487    -28.6129085435
|  6>  H    -72.0738634186    -96.4963268373    -28.5236246209
|  7>  H    -73.7841461110    -97.4885912508    -28.6548162218
|  8>  H    -72.2752074878    -98.4081016798    -28.6794574408
|  9> *
| 10>
| 11> %EPRNMR
| 12>         GTENSOR   TRUE
| 13>         NUCLEI    = ALL H {AISO, ADIP, AORB}
| 14>         NUCLEI    = ALL C {AISO, ADIP, AORB}
| 15> END
| 16>
| 17>
| 18>                          ****END OF INPUT****

CARTESIAN COORDINATES (ANGSTROEM)
---------------------------------
  C    -72.645361  -97.419851  -28.612909
  H    -72.073863  -96.496327  -28.523625
  H    -73.784146  -97.488591  -28.654816
  H    -72.275207  -98.408102  -28.679457

 Total Charge           Charge          ....    0
 Multiplicity           Mult            ....    2
 Number of Electrons    NEL             ....    9
 Basis Dimension        Dim             ....   73

ORBITAL ENERGIES
----------------
                 SPIN UP ORBITALS
  NO   OCC          E(Eh)            E(eV)
   0   1.0000     -10.189113      -277.2599
   1   1.0000      -0.684607       -18.6291
   2   1.0000      -0.440071       -11.9749
   3   1.0000      -0.397473       -10.8158
   4   1.0000      -0.235038        -6.3957
   5   0.0000       0.000215         0.0059
   6   0.0000       0.034358         0.9349
   7   0.0000       0.038797         1.0557
   8   0.0000       0.047379         1.2892
   9   0.0000       0.082652         2.2491

                 SPIN DOWN ORBITALS
  NO   OCC          E(Eh)            E(eV)
   0   1.0000     -10.174574      -276.8642
   1   1.0000      -0.645057       -17.5529
   2   1.0000      -0.430852       -11.7241
   3   1.0000      -0.387988       -10.5577
   4   0.0000      -0.077344        -2.1046
   5   0.0000       0.003534         0.0962
   6   0.0000       0.034063         0.9269
   7   0.0000       0.038418         1.0454
   8   0.0000       0.060668         1.6509

MULLIKEN ATOMIC CHARGES AND SPIN POPULATIONS
--------------------------------------------
   0 C :   -0.430795    1.107758
   1 H :    0.153703   -0.033678
   2 H :    0.132924   -0.039706
   3 H :    0.144168   -0.034374
Sum of atomic charges         :    0.0000000

LOEWDIN ATOMIC CHARGES AND SPIN POPULATIONS
-------------------------------------------
   0 C :   -0.163515    0.914576
   1 H :    0.054448    0.029069
   2 H :    0.073756    0.021401
   3 H :    0.035311    0.034954

  Mayer bond orders larger than 0.100000
B(  0-C ,  1-H ) :   0.9734 B(  0-C ,  2-H ) :   0.9774 B(  0-C ,  3-H ) :   0.9761

FINAL SINGLE POINT ENERGY       -39.822574328889

DIPOLE MOMENT
-------------
                                X             Y             Z
Electronic contribution:      0.14988       0.08292       0.01239
Nuclear contribution   :     -0.14775      -0.10003      -0.01437
                        -----------------------------------------
Total Dipole Moment    :      0.00213      -0.01711      -0.00198
                        -----------------------------------------
Magnitude (a.u.)       :      0.01735
Magnitude (Debye)      :      0.04411

Rotational constants in cm-1:    10.754130     8.158215     4.639012
Rotational constants in MHz : 322400.718286 244577.142730 139074.075026

                             ****ORCA TERMINATED NORMALLY****
TOTAL RUN TIME: 0 days 0 hours 0 minutes 21 seconds 379 msec
