                         Program Version 5.0.3 -  RELEASE  -
|  1> !B3LYP EPR-III Autoaux
|  2> !PAL4
|  3>
|  4> * xyz 0 2
|  5>  C    -77.2031803743   -102.9645728363    -29.6922663740
|  6>  H    -76.9257070414   -104.0397153453    -29.7945310145
|  7>  H    -76.3821708493   -102.2359364938    -29.6056162466
|  8>  H    -78.2412523272   -102.4875669472    -29.7047855927
|  9> *
| 10>
| 11> %EPRNMR
| 12>         GTENSOR   TRUE
| 13>         NUCLEI    = ALL H {AISO, ADIP, AORB}
| 14>         NUCLEI    = ALL C {AISO, ADIP, AORB}
| 15> END
| 16>
| 17>
| 18>                          ****END OF INPUT****

CARTESIAN COORDINATES (ANGSTROEM)
---------------------------------
  C    -77.203180  -102.964573  -29.692266
  H    -76.925707  -104.039715  -29.794531
  H    -76.382171  -102.235936  -29.605616
  H    -78.241252  -102.487567  -29.704786

 Total Charge           Charge          ....    0
 Multiplicity           Mult            ....    2
 Number of Electrons    NEL             ....    9
 Basis Dimension        Dim             ....   73

ORBITAL ENERGIES
----------------
                 SPIN UP ORBITALS
  NO   OCC          E(Eh)            E(eV)
   0   1.0000     -10.195841      -277.4429
   1   1.0000      -0.677523       -18.4363
   2   1.0000      -0.424460       -11.5501
   3   1.0000      -0.403604       -10.9826
   4   1.0000      -0.234907        -6.3921
   5   0.0000      -0.000700        -0.0190
   6   0.0000       0.035103         0.9552
   7   0.0000       0.038049         1.0354
   8   0.0000       0.047289         1.2868
   9   0.0000       0.077876         2.1191

                 SPIN DOWN ORBITALS
  NO   OCC          E(Eh)            E(eV)
   0   1.0000     -10.181170      -277.0437
   1   1.0000      -0.637660       -17.3516
   2   1.0000      -0.415684       -11.3113
   3   1.0000      -0.394206       -10.7269
   4   0.0000      -0.076951        -2.0939
   5   0.0000       0.002898         0.0789
   6   0.0000       0.034847         0.9482
   7   0.0000       0.037713         1.0262
   8   0.0000       0.060659         1.6506

MULLIKEN ATOMIC CHARGES AND SPIN POPULATIONS
--------------------------------------------
   0 C :   -0.429322    1.111317
   1 H :    0.148556   -0.036284
   2 H :    0.136516   -0.036279
   3 H :    0.144250   -0.038753
Sum of atomic charges         :   -0.0000000

LOEWDIN ATOMIC CHARGES AND SPIN POPULATIONS
-------------------------------------------
   0 C :   -0.184778    0.924930
   1 H :    0.061161    0.025532
   2 H :    0.051249    0.028300
   3 H :    0.072367    0.021238

  Mayer bond orders larger than 0.100000
B(  0-C ,  1-H ) :   0.9706 B(  0-C ,  2-H ) :   0.9734 B(  0-C ,  3-H ) :   0.9711

FINAL SINGLE POINT ENERGY       -39.823650533021

DIPOLE MOMENT
-------------
                                X             Y             Z
Electronic contribution:     -0.03149      -0.08585       0.01110
Nuclear contribution   :      0.04528       0.09781      -0.02109
                        -----------------------------------------
Total Dipole Moment    :      0.01378       0.01196      -0.00999
                        -----------------------------------------
Magnitude (a.u.)       :      0.02080
Magnitude (Debye)      :      0.05288

Rotational constants in cm-1:     9.930916     8.055181     4.448752
Rotational constants in MHz : 297721.381215 241488.265006 133370.233527

                             ****ORCA TERMINATED NORMALLY****
TOTAL RUN TIME: 0 days 0 hours 0 minutes 18 seconds 669 msec
