                         Program Version 5.0.3 -  RELEASE  -
|  1> !B3LYP EPR-III Autoaux
|  2> !PAL4
|  3>
|  4> * xyz 0 2
|  5>  C      4.0714233755    -10.2832388897     -9.3561194911
|  6>  H      4.3710060386     -9.5459330416    -10.0161669104
|  7>  H      2.9021287423    -10.2785857755     -9.2020267726
|  8>  H      4.7231866437    -10.7843167738     -8.6362447422
|  9> *
| 10>
| 11> %EPRNMR
| 12>         GTENSOR   TRUE
| 13>         NUCLEI    = ALL H {AISO, ADIP, AORB}
| 14>         NUCLEI    = ALL C {AISO, ADIP, AORB}
| 15> END
| 16>
| 17>
| 18>                          ****END OF INPUT****

CARTESIAN COORDINATES (ANGSTROEM)
---------------------------------
  C      4.071423  -10.283239   -9.356119
  H      4.371006   -9.545933  -10.016167
  H      2.902129  -10.278586   -9.202027
  H      4.723187  -10.784317   -8.636245

 Total Charge           Charge          ....    0
 Multiplicity           Mult            ....    2
 Number of Electrons    NEL             ....    9
 Basis Dimension        Dim             ....   73

ORBITAL ENERGIES
----------------
                 SPIN UP ORBITALS
  NO   OCC          E(Eh)            E(eV)
   0   1.0000     -10.191228      -277.3174
   1   1.0000      -0.684520       -18.6267
   2   1.0000      -0.435673       -11.8553
   3   1.0000      -0.398848       -10.8532
   4   1.0000      -0.238098        -6.4790
   5   0.0000      -0.000252        -0.0068
   6   0.0000       0.035355         0.9621
   7   0.0000       0.038179         1.0389
   8   0.0000       0.047158         1.2832
   9   0.0000       0.080572         2.1925

                 SPIN DOWN ORBITALS
  NO   OCC          E(Eh)            E(eV)
   0   1.0000     -10.176625      -276.9200
   1   1.0000      -0.645401       -17.5622
   2   1.0000      -0.425967       -11.5911
   3   1.0000      -0.389648       -10.6029
   4   0.0000      -0.079082        -2.1519
   5   0.0000       0.003020         0.0822
   6   0.0000       0.035030         0.9532
   7   0.0000       0.037897         1.0312
   8   0.0000       0.060318         1.6413

MULLIKEN ATOMIC CHARGES AND SPIN POPULATIONS
--------------------------------------------
   0 C :   -0.423722    1.101084
   1 H :    0.147076   -0.030161
   2 H :    0.128600   -0.038933
   3 H :    0.148046   -0.031989
Sum of atomic charges         :    0.0000000

LOEWDIN ATOMIC CHARGES AND SPIN POPULATIONS
-------------------------------------------
   0 C :   -0.162834    0.915116
   1 H :    0.021961    0.039131
   2 H :    0.086646    0.016475
   3 H :    0.054227    0.029279

  Mayer bond orders larger than 0.100000
B(  0-C ,  1-H ) :   0.9747 B(  0-C ,  2-H ) :   0.9767 B(  0-C ,  3-H ) :   0.9738

FINAL SINGLE POINT ENERGY       -39.820295571352

DIPOLE MOMENT
-------------
                                X             Y             Z
Electronic contribution:      0.17404      -0.10611      -0.11201
Nuclear contribution   :     -0.16335       0.18054       0.16033
                        -----------------------------------------
Total Dipole Moment    :      0.01069       0.07443       0.04832
                        -----------------------------------------
Magnitude (a.u.)       :      0.08938
Magnitude (Debye)      :      0.22718

Rotational constants in cm-1:     9.971999     8.385413     4.624295
Rotational constants in MHz : 298953.009908 251388.350758 138632.884402

                             ****ORCA TERMINATED NORMALLY****
TOTAL RUN TIME: 0 days 0 hours 0 minutes 26 seconds 460 msec
