                         Program Version 5.0.3 -  RELEASE  -
|  1> !B3LYP EPR-III Autoaux
|  2> !PAL4
|  3>
|  4> * xyz 0 2
|  5>  C    -66.8661974156    -90.4070122066    -27.2805382435
|  6>  H    -67.5327285730    -89.5226260120    -27.2257630455
|  7>  H    -67.1595141048    -91.3946354819    -27.4105888597
|  8>  H    -65.7517907786    -90.1247555978    -27.2458976438
|  9> *
| 10>
| 11> %EPRNMR
| 12>         GTENSOR   TRUE
| 13>         NUCLEI    = ALL H {AISO, ADIP, AORB}
| 14>         NUCLEI    = ALL C {AISO, ADIP, AORB}
| 15> END
| 16>
| 17>
| 18>                          ****END OF INPUT****

CARTESIAN COORDINATES (ANGSTROEM)
---------------------------------
  C    -66.866197  -90.407012  -27.280538
  H    -67.532729  -89.522626  -27.225763
  H    -67.159514  -91.394635  -27.410589
  H    -65.751791  -90.124756  -27.245898

 Total Charge           Charge          ....    0
 Multiplicity           Mult            ....    2
 Number of Electrons    NEL             ....    9
 Basis Dimension        Dim             ....   73

ORBITAL ENERGIES
----------------
                 SPIN UP ORBITALS
  NO   OCC          E(Eh)            E(eV)
   0   1.0000     -10.189946      -277.2825
   1   1.0000      -0.683655       -18.6032
   2   1.0000      -0.437637       -11.9087
   3   1.0000      -0.400100       -10.8873
   4   1.0000      -0.235208        -6.4003
   5   0.0000       0.000245         0.0067
   6   0.0000       0.034994         0.9522
   7   0.0000       0.038227         1.0402
   8   0.0000       0.047361         1.2887
   9   0.0000       0.083471         2.2714

                 SPIN DOWN ORBITALS
  NO   OCC          E(Eh)            E(eV)
   0   1.0000     -10.175387      -276.8864
   1   1.0000      -0.643956       -17.5229
   2   1.0000      -0.428179       -11.6514
   3   1.0000      -0.391013       -10.6400
   4   0.0000      -0.077381        -2.1056
   5   0.0000       0.003572         0.0972
   6   0.0000       0.034668         0.9434
   7   0.0000       0.037902         1.0314
   8   0.0000       0.060651         1.6504

MULLIKEN ATOMIC CHARGES AND SPIN POPULATIONS
--------------------------------------------
   0 C :   -0.427785    1.106878
   1 H :    0.142480   -0.036623
   2 H :    0.152554   -0.030796
   3 H :    0.132751   -0.039459
Sum of atomic charges         :    0.0000000

LOEWDIN ATOMIC CHARGES AND SPIN POPULATIONS
-------------------------------------------
   0 C :   -0.162638    0.915272
   1 H :    0.060547    0.026369
   2 H :    0.025923    0.038174
   3 H :    0.076168    0.020185

  Mayer bond orders larger than 0.100000
B(  0-C ,  1-H ) :   0.9749 B(  0-C ,  2-H ) :   0.9745 B(  0-C ,  3-H ) :   0.9763

FINAL SINGLE POINT ENERGY       -39.823335154629

DIPOLE MOMENT
-------------
                                X             Y             Z
Electronic contribution:     -0.11738      -0.12929       0.01340
Nuclear contribution   :      0.11584       0.13417      -0.03045
                        -----------------------------------------
Total Dipole Moment    :     -0.00154       0.00488      -0.01705
                        -----------------------------------------
Magnitude (a.u.)       :      0.01781
Magnitude (Debye)      :      0.04526

Rotational constants in cm-1:     9.453047     8.998374     4.612676
Rotational constants in MHz : 283395.207833 269764.455945 138284.534009

                             ****ORCA TERMINATED NORMALLY****
TOTAL RUN TIME: 0 days 0 hours 0 minutes 20 seconds 936 msec
