                         Program Version 5.0.3 -  RELEASE  -
|  1> !B3LYP EPR-III Autoaux
|  2> !PAL4
|  3>
|  4> * xyz 0 2
|  5>  C    -60.7106187866    -83.1820116113    -25.8534611918
|  6>  H    -61.7880390186    -83.3146890210    -25.8429302951
|  7>  H    -60.0890997292    -84.0288676225    -25.9681793242
|  8>  H    -60.3613668500    -82.1237649475    -25.7682981791
|  9> *
| 10>
| 11> %EPRNMR
| 12>         GTENSOR   TRUE
| 13>         NUCLEI    = ALL H {AISO, ADIP, AORB}
| 14>         NUCLEI    = ALL C {AISO, ADIP, AORB}
| 15> END
| 16>
| 17>
| 18>                          ****END OF INPUT****

CARTESIAN COORDINATES (ANGSTROEM)
---------------------------------
  C    -60.710619  -83.182012  -25.853461
  H    -61.788039  -83.314689  -25.842930
  H    -60.089100  -84.028868  -25.968179
  H    -60.361367  -82.123765  -25.768298

 Total Charge           Charge          ....    0
 Multiplicity           Mult            ....    2
 Number of Electrons    NEL             ....    9
 Basis Dimension        Dim             ....   73

ORBITAL ENERGIES
----------------
                 SPIN UP ORBITALS
  NO   OCC          E(Eh)            E(eV)
   0   1.0000     -10.186100      -277.1779
   1   1.0000      -0.686114       -18.6701
   2   1.0000      -0.432024       -11.7560
   3   1.0000      -0.410715       -11.1761
   4   1.0000      -0.234767        -6.3883
   5   0.0000       0.000771         0.0210
   6   0.0000       0.035644         0.9699
   7   0.0000       0.037794         1.0284
   8   0.0000       0.047460         1.2915
   9   0.0000       0.085787         2.3344

                 SPIN DOWN ORBITALS
  NO   OCC          E(Eh)            E(eV)
   0   1.0000     -10.171632      -276.7842
   1   1.0000      -0.646594       -17.5947
   2   1.0000      -0.422631       -11.5004
   3   1.0000      -0.401305       -10.9201
   4   0.0000      -0.077265        -2.1025
   5   0.0000       0.003969         0.1080
   6   0.0000       0.035292         0.9603
   7   0.0000       0.037407         1.0179
   8   0.0000       0.060736         1.6527

MULLIKEN ATOMIC CHARGES AND SPIN POPULATIONS
--------------------------------------------
   0 C :   -0.427436    1.104437
   1 H :    0.137894   -0.035120
   2 H :    0.148294   -0.032361
   3 H :    0.141248   -0.036956
Sum of atomic charges         :    0.0000000

LOEWDIN ATOMIC CHARGES AND SPIN POPULATIONS
-------------------------------------------
   0 C :   -0.154797    0.910167
   1 H :    0.050564    0.030238
   2 H :    0.037743    0.034799
   3 H :    0.066490    0.024796

  Mayer bond orders larger than 0.100000
B(  0-C ,  1-H ) :   0.9775 B(  0-C ,  2-H ) :   0.9762 B(  0-C ,  3-H ) :   0.9762

FINAL SINGLE POINT ENERGY       -39.826929452478

DIPOLE MOMENT
-------------
                                X             Y             Z
Electronic contribution:      0.07032      -0.06088       0.00582
Nuclear contribution   :     -0.07993       0.05899      -0.01426
                        -----------------------------------------
Total Dipole Moment    :     -0.00961      -0.00189      -0.00844
                        -----------------------------------------
Magnitude (a.u.)       :      0.01293
Magnitude (Debye)      :      0.03286

Rotational constants in cm-1:    10.023295     8.920266     4.720476
Rotational constants in MHz : 300490.818263 267422.848368 141516.303850

                             ****ORCA TERMINATED NORMALLY****
TOTAL RUN TIME: 0 days 0 hours 0 minutes 23 seconds 919 msec
