                         Program Version 5.0.3 -  RELEASE  -
|  1> !B3LYP EPR-III Autoaux
|  2> !PAL4
|  3>
|  4> * xyz 0 2
|  5>  C    -27.5715596167    -46.0475463711    -17.4939967020
|  6>  H    -27.4768705998    -47.2371041750    -17.4914649375
|  7>  H    -26.6496055583    -45.6949652916    -17.7518368795
|  8>  H    -28.5548659414    -45.5473706025    -17.4011337362
|  9> *
| 10>
| 11> %EPRNMR
| 12>         GTENSOR   TRUE
| 13>         NUCLEI    = ALL H {AISO, ADIP, AORB}
| 14>         NUCLEI    = ALL C {AISO, ADIP, AORB}
| 15> END
| 16>
| 17>
| 18>                          ****END OF INPUT****

CARTESIAN COORDINATES (ANGSTROEM)
---------------------------------
  C    -27.571560  -46.047546  -17.493997
  H    -27.476871  -47.237104  -17.491465
  H    -26.649606  -45.694965  -17.751837
  H    -28.554866  -45.547371  -17.401134

 Total Charge           Charge          ....    0
 Multiplicity           Mult            ....    2
 Number of Electrons    NEL             ....    9
 Basis Dimension        Dim             ....   73

ORBITAL ENERGIES
----------------
                 SPIN UP ORBITALS
  NO   OCC          E(Eh)            E(eV)
   0   1.0000     -10.192302      -277.3466
   1   1.0000      -0.684374       -18.6228
   2   1.0000      -0.444583       -12.0977
   3   1.0000      -0.388106       -10.5609
   4   1.0000      -0.236499        -6.4355
   5   0.0000      -0.000603        -0.0164
   6   0.0000       0.033912         0.9228
   7   0.0000       0.039022         1.0618
   8   0.0000       0.047232         1.2852
   9   0.0000       0.078671         2.1407

                 SPIN DOWN ORBITALS
  NO   OCC          E(Eh)            E(eV)
   0   1.0000     -10.177651      -276.9480
   1   1.0000      -0.644854       -17.5474
   2   1.0000      -0.435072       -11.8389
   3   1.0000      -0.378917       -10.3109
   4   0.0000      -0.078055        -2.1240
   5   0.0000       0.002839         0.0773
   6   0.0000       0.033666         0.9161
   7   0.0000       0.038746         1.0543
   8   0.0000       0.060475         1.6456

MULLIKEN ATOMIC CHARGES AND SPIN POPULATIONS
--------------------------------------------
   0 C :   -0.429874    1.108596
   1 H :    0.122580   -0.042517
   2 H :    0.152267   -0.031770
   3 H :    0.155028   -0.034310
Sum of atomic charges         :   -0.0000000

LOEWDIN ATOMIC CHARGES AND SPIN POPULATIONS
-------------------------------------------
   0 C :   -0.165538    0.917990
   1 H :    0.089860    0.014085
   2 H :    0.013533    0.041521
   3 H :    0.062145    0.026404

  Mayer bond orders larger than 0.100000
B(  0-C ,  1-H ) :   0.9782 B(  0-C ,  2-H ) :   0.9743 B(  0-C ,  3-H ) :   0.9718

FINAL SINGLE POINT ENERGY       -39.814505009453

DIPOLE MOMENT
-------------
                                X             Y             Z
Electronic contribution:     -0.01920       0.26120       0.07037
Nuclear contribution   :      0.02499      -0.25243      -0.12175
                        -----------------------------------------
Total Dipole Moment    :      0.00578       0.00878      -0.05138
                        -----------------------------------------
Magnitude (a.u.)       :      0.05245
Magnitude (Debye)      :      0.13331

Rotational constants in cm-1:    10.615361     7.912235     4.553182
Rotational constants in MHz : 318240.520558 237202.839621 136500.962181

                             ****ORCA TERMINATED NORMALLY****
TOTAL RUN TIME: 0 days 0 hours 0 minutes 27 seconds 279 msec
