                         Program Version 5.0.3 -  RELEASE  -
|  1> !B3LYP EPR-III Autoaux
|  2> !PAL4
|  3>
|  4> * xyz 0 2
|  5>  C    -53.5088379889    -75.0982080691    -24.0374123377
|  6>  H    -54.6002821401    -75.2877008105    -23.9931799786
|  7>  H    -52.6123793009    -75.7582456774    -24.1810595142
|  8>  H    -53.0602379947    -74.1235170609    -23.9593355674
|  9> *
| 10>
| 11> %EPRNMR
| 12>         GTENSOR   TRUE
| 13>         NUCLEI    = ALL H {AISO, ADIP, AORB}
| 14>         NUCLEI    = ALL C {AISO, ADIP, AORB}
| 15> END
| 16>
| 17>
| 18>                          ****END OF INPUT****

CARTESIAN COORDINATES (ANGSTROEM)
---------------------------------
  C    -53.508838  -75.098208  -24.037412
  H    -54.600282  -75.287701  -23.993180
  H    -52.612379  -75.758246  -24.181060
  H    -53.060238  -74.123517  -23.959336

 Total Charge           Charge          ....    0
 Multiplicity           Mult            ....    2
 Number of Electrons    NEL             ....    9
 Basis Dimension        Dim             ....   73

ORBITAL ENERGIES
----------------
                 SPIN UP ORBITALS
  NO   OCC          E(Eh)            E(eV)
   0   1.0000     -10.190935      -277.3094
   1   1.0000      -0.683740       -18.6055
   2   1.0000      -0.441696       -12.0192
   3   1.0000      -0.390935       -10.6379
   4   1.0000      -0.235063        -6.3964
   5   0.0000      -0.000279        -0.0076
   6   0.0000       0.033426         0.9096
   7   0.0000       0.039491         1.0746
   8   0.0000       0.047339         1.2882
   9   0.0000       0.076086         2.0704

                 SPIN DOWN ORBITALS
  NO   OCC          E(Eh)            E(eV)
   0   1.0000     -10.176352      -276.9126
   1   1.0000      -0.644325       -17.5330
   2   1.0000      -0.432785       -11.7767
   3   1.0000      -0.381072       -10.3695
   4   0.0000      -0.077317        -2.1039
   5   0.0000       0.003148         0.0857
   6   0.0000       0.033190         0.9031
   7   0.0000       0.039084         1.0635
   8   0.0000       0.060645         1.6502

MULLIKEN ATOMIC CHARGES AND SPIN POPULATIONS
--------------------------------------------
   0 C :   -0.435154    1.110624
   1 H :    0.158300   -0.034722
   2 H :    0.141087   -0.039713
   3 H :    0.135766   -0.036189
Sum of atomic charges         :   -0.0000000

LOEWDIN ATOMIC CHARGES AND SPIN POPULATIONS
-------------------------------------------
   0 C :   -0.173099    0.917929
   1 H :    0.063720    0.025827
   2 H :    0.067068    0.024074
   3 H :    0.042311    0.032170

  Mayer bond orders larger than 0.100000
B(  0-C ,  1-H ) :   0.9712 B(  0-C ,  2-H ) :   0.9764 B(  0-C ,  3-H ) :   0.9768

FINAL SINGLE POINT ENERGY       -39.819324558696

DIPOLE MOMENT
-------------
                                X             Y             Z
Electronic contribution:     -0.17367      -0.06830       0.01248
Nuclear contribution   :      0.19008       0.09381      -0.01599
                        -----------------------------------------
Total Dipole Moment    :      0.01641       0.02551      -0.00351
                        -----------------------------------------
Magnitude (a.u.)       :      0.03053
Magnitude (Debye)      :      0.07761

Rotational constants in cm-1:    11.630613     7.590774     4.593317
Rotational constants in MHz : 348677.013252 227565.669396 137704.192425

                             ****ORCA TERMINATED NORMALLY****
TOTAL RUN TIME: 0 days 0 hours 0 minutes 18 seconds 939 msec
