                         Program Version 5.0.3 -  RELEASE  -
|  1> !B3LYP EPR-III Autoaux
|  2> !PAL4
|  3>
|  4> * xyz 0 2
|  5>  C    -66.1078695010    -89.5217337715    -27.1137565840
|  6>  H    -66.2642051381    -88.4347409392    -27.0416942817
|  7>  H    -67.1376754023    -90.0700753760    -27.2146289505
|  8>  H    -65.1063514357    -89.8955408693    -27.1287329147
|  9> *
| 10>
| 11> %EPRNMR
| 12>         GTENSOR   TRUE
| 13>         NUCLEI    = ALL H {AISO, ADIP, AORB}
| 14>         NUCLEI    = ALL C {AISO, ADIP, AORB}
| 15> END
| 16>
| 17>
| 18>                          ****END OF INPUT****

CARTESIAN COORDINATES (ANGSTROEM)
---------------------------------
  C    -66.107870  -89.521734  -27.113757
  H    -66.264205  -88.434741  -27.041694
  H    -67.137675  -90.070075  -27.214629
  H    -65.106351  -89.895541  -27.128733

 Total Charge           Charge          ....    0
 Multiplicity           Mult            ....    2
 Number of Electrons    NEL             ....    9
 Basis Dimension        Dim             ....   73

ORBITAL ENERGIES
----------------
                 SPIN UP ORBITALS
  NO   OCC          E(Eh)            E(eV)
   0   1.0000     -10.194095      -277.3954
   1   1.0000      -0.680174       -18.5085
   2   1.0000      -0.434094       -11.8123
   3   1.0000      -0.396247       -10.7824
   4   1.0000      -0.235169        -6.3993
   5   0.0000      -0.000602        -0.0164
   6   0.0000       0.034294         0.9332
   7   0.0000       0.038661         1.0520
   8   0.0000       0.047287         1.2867
   9   0.0000       0.075305         2.0491

                 SPIN DOWN ORBITALS
  NO   OCC          E(Eh)            E(eV)
   0   1.0000     -10.179446      -276.9968
   1   1.0000      -0.640401       -17.4262
   2   1.0000      -0.425058       -11.5664
   3   1.0000      -0.386935       -10.5290
   4   0.0000      -0.077182        -2.1002
   5   0.0000       0.002944         0.0801
   6   0.0000       0.034053         0.9266
   7   0.0000       0.038337         1.0432
   8   0.0000       0.060623         1.6496

MULLIKEN ATOMIC CHARGES AND SPIN POPULATIONS
--------------------------------------------
   0 C :   -0.430903    1.110828
   1 H :    0.135093   -0.036584
   2 H :    0.142300   -0.041453
   3 H :    0.153511   -0.032792
Sum of atomic charges         :    0.0000000

LOEWDIN ATOMIC CHARGES AND SPIN POPULATIONS
-------------------------------------------
   0 C :   -0.177587    0.922054
   1 H :    0.052011    0.028300
   2 H :    0.084864    0.016656
   3 H :    0.040712    0.032991

  Mayer bond orders larger than 0.100000
B(  0-C ,  1-H ) :   0.9747 B(  0-C ,  2-H ) :   0.9721 B(  0-C ,  3-H ) :   0.9721

FINAL SINGLE POINT ENERGY       -39.820865956135

DIPOLE MOMENT
-------------
                                X             Y             Z
Electronic contribution:      0.13809      -0.09938       0.02059
Nuclear contribution   :     -0.13837       0.12355      -0.03282
                        -----------------------------------------
Total Dipole Moment    :     -0.00028       0.02417      -0.01223
                        -----------------------------------------
Magnitude (a.u.)       :      0.02709
Magnitude (Debye)      :      0.06886

Rotational constants in cm-1:    10.253187     7.998355     4.494935
Rotational constants in MHz : 307382.801780 239784.638719 134754.757025

                             ****ORCA TERMINATED NORMALLY****
TOTAL RUN TIME: 0 days 0 hours 0 minutes 18 seconds 317 msec
