                         Program Version 5.0.3 -  RELEASE  -
|  1> !B3LYP EPR-III Autoaux
|  2> !PAL4
|  3>
|  4> * xyz 0 2
|  5>  C    -87.8145059813   -116.0210307778    -32.1998834170
|  6>  H    -87.5771403283   -114.9284121618    -32.1034417843
|  7>  H    -88.8989416641   -116.2768052047    -32.2787611219
|  8>  H    -86.9771717769   -116.7399985404    -32.2281273672
|  9> *
| 10>
| 11> %EPRNMR
| 12>         GTENSOR   TRUE
| 13>         NUCLEI    = ALL H {AISO, ADIP, AORB}
| 14>         NUCLEI    = ALL C {AISO, ADIP, AORB}
| 15> END
| 16>
| 17>
| 18>                          ****END OF INPUT****

CARTESIAN COORDINATES (ANGSTROEM)
---------------------------------
  C    -87.814506  -116.021031  -32.199883
  H    -87.577140  -114.928412  -32.103442
  H    -88.898942  -116.276805  -32.278761
  H    -86.977172  -116.739999  -32.228127

 Total Charge           Charge          ....    0
 Multiplicity           Mult            ....    2
 Number of Electrons    NEL             ....    9
 Basis Dimension        Dim             ....   73

ORBITAL ENERGIES
----------------
                 SPIN UP ORBITALS
  NO   OCC          E(Eh)            E(eV)
   0   1.0000     -10.194420      -277.4043
   1   1.0000      -0.678413       -18.4605
   2   1.0000      -0.424595       -11.5538
   3   1.0000      -0.406339       -11.0571
   4   1.0000      -0.234838        -6.3903
   5   0.0000      -0.000290        -0.0079
   6   0.0000       0.035606         0.9689
   7   0.0000       0.037664         1.0249
   8   0.0000       0.047322         1.2877
   9   0.0000       0.083301         2.2667

                 SPIN DOWN ORBITALS
  NO   OCC          E(Eh)            E(eV)
   0   1.0000     -10.179787      -277.0061
   1   1.0000      -0.638545       -17.3757
   2   1.0000      -0.415589       -11.3088
   3   1.0000      -0.397144       -10.8068
   4   0.0000      -0.076978        -2.0947
   5   0.0000       0.003213         0.0874
   6   0.0000       0.035307         0.9607
   7   0.0000       0.037333         1.0159
   8   0.0000       0.060680         1.6512

MULLIKEN ATOMIC CHARGES AND SPIN POPULATIONS
--------------------------------------------
   0 C :   -0.427472    1.109760
   1 H :    0.136581   -0.037443
   2 H :    0.144050   -0.036774
   3 H :    0.146842   -0.035542
Sum of atomic charges         :   -0.0000000

LOEWDIN ATOMIC CHARGES AND SPIN POPULATIONS
-------------------------------------------
   0 C :   -0.179835    0.922614
   1 H :    0.062071    0.024746
   2 H :    0.061597    0.025299
   3 H :    0.056168    0.027342

  Mayer bond orders larger than 0.100000
B(  0-C ,  1-H ) :   0.9737 B(  0-C ,  2-H ) :   0.9721 B(  0-C ,  3-H ) :   0.9717

FINAL SINGLE POINT ENERGY       -39.825800301619

DIPOLE MOMENT
-------------
                                X             Y             Z
Electronic contribution:      0.00820      -0.08192       0.00304
Nuclear contribution   :     -0.00730       0.08835      -0.00800
                        -----------------------------------------
Total Dipole Moment    :      0.00091       0.00643      -0.00496
                        -----------------------------------------
Magnitude (a.u.)       :      0.00817
Magnitude (Debye)      :      0.02078

Rotational constants in cm-1:     9.461314     8.543474     4.489758
Rotational constants in MHz : 283643.058642 256126.894215 134599.545152

                             ****ORCA TERMINATED NORMALLY****
TOTAL RUN TIME: 0 days 0 hours 0 minutes 21 seconds 589 msec
