                         Program Version 5.0.3 -  RELEASE  -
|  1> !B3LYP EPR-III Autoaux
|  2> !PAL4
|  3>
|  4> * xyz 0 2
|  5>  C     10.8766081990     -2.5285644605     -7.5909585203
|  6>  H     11.3097235642     -1.8305795625     -8.3189722295
|  7>  H     10.6526840116     -2.2029037362     -6.6455825771
|  8>  H     10.9050808073     -3.5298037535     -7.8226189750
|  9> *
| 10>
| 11> %EPRNMR
| 12>         GTENSOR   TRUE
| 13>         NUCLEI    = ALL H {AISO, ADIP, AORB}
| 14>         NUCLEI    = ALL C {AISO, ADIP, AORB}
| 15> END
| 16>
| 17>
| 18>                          ****END OF INPUT****

CARTESIAN COORDINATES (ANGSTROEM)
---------------------------------
  C     10.876608   -2.528564   -7.590959
  H     11.309724   -1.830580   -8.318972
  H     10.652684   -2.202904   -6.645583
  H     10.905081   -3.529804   -7.822619

 Total Charge           Charge          ....    0
 Multiplicity           Mult            ....    2
 Number of Electrons    NEL             ....    9
 Basis Dimension        Dim             ....   73

ORBITAL ENERGIES
----------------
                 SPIN UP ORBITALS
  NO   OCC          E(Eh)            E(eV)
   0   1.0000     -10.174927      -276.8738
   1   1.0000      -0.696612       -18.9558
   2   1.0000      -0.438474       -11.9315
   3   1.0000      -0.419660       -11.4195
   4   1.0000      -0.236007        -6.4221
   5   0.0000       0.001762         0.0479
   6   0.0000       0.036363         0.9895
   7   0.0000       0.037535         1.0214
   8   0.0000       0.047616         1.2957
   9   0.0000       0.091313         2.4847

                 SPIN DOWN ORBITALS
  NO   OCC          E(Eh)            E(eV)
   0   1.0000     -10.160628      -276.4848
   1   1.0000      -0.657695       -17.8968
   2   1.0000      -0.428410       -11.6576
   3   1.0000      -0.410009       -11.1569
   4   0.0000      -0.078305        -2.1308
   5   0.0000       0.004606         0.1253
   6   0.0000       0.035933         0.9778
   7   0.0000       0.037119         1.0101
   8   0.0000       0.060744         1.6529

MULLIKEN ATOMIC CHARGES AND SPIN POPULATIONS
--------------------------------------------
   0 C :   -0.425775    1.095120
   1 H :    0.135928   -0.034780
   2 H :    0.145850   -0.029908
   3 H :    0.143996   -0.030432
Sum of atomic charges         :    0.0000000

LOEWDIN ATOMIC CHARGES AND SPIN POPULATIONS
-------------------------------------------
   0 C :   -0.120136    0.893382
   1 H :    0.063696    0.027691
   2 H :    0.027382    0.039741
   3 H :    0.029058    0.039186

  Mayer bond orders larger than 0.100000
B(  0-C ,  1-H ) :   0.9818 B(  0-C ,  2-H ) :   0.9814 B(  0-C ,  3-H ) :   0.9815

FINAL SINGLE POINT ENERGY       -39.824396492240

DIPOLE MOMENT
-------------
                                X             Y             Z
Electronic contribution:     -0.12182      -0.02956       0.03336
Nuclear contribution   :      0.17812       0.01679      -0.01072
                        -----------------------------------------
Total Dipole Moment    :      0.05630      -0.01276       0.02265
                        -----------------------------------------
Magnitude (a.u.)       :      0.06201
Magnitude (Debye)      :      0.15763

Rotational constants in cm-1:    10.374552     9.791448     5.074524
Rotational constants in MHz : 311021.255615 293540.239545 152130.409697

                             ****ORCA TERMINATED NORMALLY****
TOTAL RUN TIME: 0 days 0 hours 0 minutes 21 seconds 17 msec
