                         Program Version 5.0.3 -  RELEASE  -
|  1> !B3LYP EPR-III Autoaux
|  2> !PAL4
|  3>
|  4> * xyz 0 2
|  5>  C     -7.0874926248    -22.9680099772    -12.2139235418
|  6>  H     -7.6272338451    -22.3402855341    -12.8316194583
|  7>  H     -7.6042320266    -23.9732788139    -11.9210423187
|  8>  H     -6.0012844119    -22.7023774695    -12.0524218838
|  9> *
| 10>
| 11> %EPRNMR
| 12>         GTENSOR   TRUE
| 13>         NUCLEI    = ALL H {AISO, ADIP, AORB}
| 14>         NUCLEI    = ALL C {AISO, ADIP, AORB}
| 15> END
| 16>
| 17>
| 18>                          ****END OF INPUT****

CARTESIAN COORDINATES (ANGSTROEM)
---------------------------------
  C     -7.087493  -22.968010  -12.213924
  H     -7.627234  -22.340286  -12.831619
  H     -7.604232  -23.973279  -11.921042
  H     -6.001284  -22.702377  -12.052422

 Total Charge           Charge          ....    0
 Multiplicity           Mult            ....    2
 Number of Electrons    NEL             ....    9
 Basis Dimension        Dim             ....   73

ORBITAL ENERGIES
----------------
                 SPIN UP ORBITALS
  NO   OCC          E(Eh)            E(eV)
   0   1.0000     -10.192722      -277.3581
   1   1.0000      -0.682067       -18.5600
   2   1.0000      -0.418469       -11.3871
   3   1.0000      -0.412574       -11.2267
   4   1.0000      -0.235936        -6.4201
   5   0.0000      -0.000661        -0.0180
   6   0.0000       0.035823         0.9748
   7   0.0000       0.037496         1.0203
   8   0.0000       0.047293         1.2869
   9   0.0000       0.076873         2.0918

                 SPIN DOWN ORBITALS
  NO   OCC          E(Eh)            E(eV)
   0   1.0000     -10.178075      -276.9595
   1   1.0000      -0.642593       -17.4858
   2   1.0000      -0.409066       -11.1313
   3   1.0000      -0.403307       -10.9745
   4   0.0000      -0.077614        -2.1120
   5   0.0000       0.002838         0.0772
   6   0.0000       0.035597         0.9686
   7   0.0000       0.037173         1.0115
   8   0.0000       0.060579         1.6484

MULLIKEN ATOMIC CHARGES AND SPIN POPULATIONS
--------------------------------------------
   0 C :   -0.427321    1.107353
   1 H :    0.143756   -0.031428
   2 H :    0.140482   -0.039277
   3 H :    0.143084   -0.036649
Sum of atomic charges         :   -0.0000000

LOEWDIN ATOMIC CHARGES AND SPIN POPULATIONS
-------------------------------------------
   0 C :   -0.171603    0.919491
   1 H :    0.018699    0.039660
   2 H :    0.083902    0.017532
   3 H :    0.069002    0.023317

  Mayer bond orders larger than 0.100000
B(  0-C ,  1-H ) :   0.9737 B(  0-C ,  2-H ) :   0.9726 B(  0-C ,  3-H ) :   0.9731

FINAL SINGLE POINT ENERGY       -39.820067646200

DIPOLE MOMENT
-------------
                                X             Y             Z
Electronic contribution:     -0.01780       0.07815       0.06248
Nuclear contribution   :      0.02228      -0.08388      -0.12240
                        -----------------------------------------
Total Dipole Moment    :      0.00448      -0.00573      -0.05992
                        -----------------------------------------
Magnitude (a.u.)       :      0.06036
Magnitude (Debye)      :      0.15342

Rotational constants in cm-1:    10.448115     7.911937     4.527615
Rotational constants in MHz : 313226.607719 237193.907590 135734.485652

                             ****ORCA TERMINATED NORMALLY****
TOTAL RUN TIME: 0 days 0 hours 0 minutes 24 seconds 247 msec
