                         Program Version 5.0.3 -  RELEASE  -
|  1> !B3LYP EPR-III Autoaux
|  2> !PAL4
|  3>
|  4> * xyz 0 2
|  5>  C    -60.5127296698    -82.9380981076    -25.8015984849
|  6>  H    -61.5696453775    -82.8827951487    -25.7647607522
|  7>  H    -59.9542493927    -83.7975900391    -25.9095224852
|  8>  H    -59.8670702962    -82.0706690150    -25.7243094481
|  9> *
| 10>
| 11> %EPRNMR
| 12>         GTENSOR   TRUE
| 13>         NUCLEI    = ALL H {AISO, ADIP, AORB}
| 14>         NUCLEI    = ALL C {AISO, ADIP, AORB}
| 15> END
| 16>
| 17>
| 18>                          ****END OF INPUT****

CARTESIAN COORDINATES (ANGSTROEM)
---------------------------------
  C    -60.512730  -82.938098  -25.801598
  H    -61.569645  -82.882795  -25.764761
  H    -59.954249  -83.797590  -25.909522
  H    -59.867070  -82.070669  -25.724309

 Total Charge           Charge          ....    0
 Multiplicity           Mult            ....    2
 Number of Electrons    NEL             ....    9
 Basis Dimension        Dim             ....   73

ORBITAL ENERGIES
----------------
                 SPIN UP ORBITALS
  NO   OCC          E(Eh)            E(eV)
   0   1.0000     -10.177337      -276.9394
   1   1.0000      -0.694288       -18.8925
   2   1.0000      -0.442501       -12.0411
   3   1.0000      -0.412299       -11.2192
   4   1.0000      -0.234709        -6.3868
   5   0.0000       0.001596         0.0434
   6   0.0000       0.035263         0.9596
   7   0.0000       0.038287         1.0418
   8   0.0000       0.047596         1.2952
   9   0.0000       0.091011         2.4765

                 SPIN DOWN ORBITALS
  NO   OCC          E(Eh)            E(eV)
   0   1.0000     -10.163032      -276.5502
   1   1.0000      -0.655119       -17.8267
   2   1.0000      -0.432897       -11.7797
   3   1.0000      -0.402459       -10.9515
   4   0.0000      -0.077572        -2.1108
   5   0.0000       0.004544         0.1236
   6   0.0000       0.034875         0.9490
   7   0.0000       0.037831         1.0294
   8   0.0000       0.060790         1.6542

MULLIKEN ATOMIC CHARGES AND SPIN POPULATIONS
--------------------------------------------
   0 C :   -0.429312    1.099646
   1 H :    0.149426   -0.032042
   2 H :    0.143929   -0.032174
   3 H :    0.135957   -0.035429
Sum of atomic charges         :   -0.0000000

LOEWDIN ATOMIC CHARGES AND SPIN POPULATIONS
-------------------------------------------
   0 C :   -0.129520    0.897382
   1 H :    0.045215    0.033667
   2 H :    0.028560    0.038946
   3 H :    0.055746    0.030005

  Mayer bond orders larger than 0.100000
B(  0-C ,  1-H ) :   0.9796 B(  0-C ,  2-H ) :   0.9809 B(  0-C ,  3-H ) :   0.9816

FINAL SINGLE POINT ENERGY       -39.825028504910

DIPOLE MOMENT
-------------
                                X             Y             Z
Electronic contribution:     -0.09761      -0.05186      -0.00449
Nuclear contribution   :      0.11034       0.04740       0.00465
                        -----------------------------------------
Total Dipole Moment    :      0.01273      -0.00446       0.00016
                        -----------------------------------------
Magnitude (a.u.)       :      0.01349
Magnitude (Debye)      :      0.03429

Rotational constants in cm-1:    11.069707     9.056830     4.981316
Rotational constants in MHz : 331861.475139 271516.942813 149336.103548

                             ****ORCA TERMINATED NORMALLY****
TOTAL RUN TIME: 0 days 0 hours 0 minutes 20 seconds 117 msec
