                         Program Version 5.0.3 -  RELEASE  -
|  1> !B3LYP EPR-III Autoaux
|  2> !PAL4
|  3>
|  4> * xyz 0 2
|  5>  C    -29.5656515612    -48.3414498710    -18.0274988947
|  6>  H    -28.6189051081    -47.9153932470    -17.8920110446
|  7>  H    -30.5461637282    -47.7084085112    -17.7549792032
|  8>  H    -29.8058711631    -49.3699752502    -18.2893713397
|  9> *
| 10>
| 11> %EPRNMR
| 12>         GTENSOR   TRUE
| 13>         NUCLEI    = ALL H {AISO, ADIP, AORB}
| 14>         NUCLEI    = ALL C {AISO, ADIP, AORB}
| 15> END
| 16>
| 17>
| 18>                          ****END OF INPUT****

CARTESIAN COORDINATES (ANGSTROEM)
---------------------------------
  C    -29.565652  -48.341450  -18.027499
  H    -28.618905  -47.915393  -17.892011
  H    -30.546164  -47.708409  -17.754979
  H    -29.805871  -49.369975  -18.289371

 Total Charge           Charge          ....    0
 Multiplicity           Mult            ....    2
 Number of Electrons    NEL             ....    9
 Basis Dimension        Dim             ....   73

ORBITAL ENERGIES
----------------
                 SPIN UP ORBITALS
  NO   OCC          E(Eh)            E(eV)
   0   1.0000     -10.193529      -277.3800
   1   1.0000      -0.681568       -18.5464
   2   1.0000      -0.439871       -11.9695
   3   1.0000      -0.392932       -10.6922
   4   1.0000      -0.235865        -6.4182
   5   0.0000      -0.000467        -0.0127
   6   0.0000       0.034670         0.9434
   7   0.0000       0.038326         1.0429
   8   0.0000       0.047254         1.2858
   9   0.0000       0.078328         2.1314

                 SPIN DOWN ORBITALS
  NO   OCC          E(Eh)            E(eV)
   0   1.0000     -10.178876      -276.9813
   1   1.0000      -0.641742       -17.4627
   2   1.0000      -0.430395       -11.7116
   3   1.0000      -0.384061       -10.4508
   4   0.0000      -0.077613        -2.1120
   5   0.0000       0.003014         0.0820
   6   0.0000       0.034364         0.9351
   7   0.0000       0.038107         1.0369
   8   0.0000       0.060542         1.6474

MULLIKEN ATOMIC CHARGES AND SPIN POPULATIONS
--------------------------------------------
   0 C :   -0.426908    1.108883
   1 H :    0.153394   -0.031148
   2 H :    0.127122   -0.042633
   3 H :    0.146392   -0.035102
Sum of atomic charges         :    0.0000000

LOEWDIN ATOMIC CHARGES AND SPIN POPULATIONS
-------------------------------------------
   0 C :   -0.169407    0.920083
   1 H :    0.028992    0.036843
   2 H :    0.090987    0.013218
   3 H :    0.049428    0.029857

  Mayer bond orders larger than 0.100000
B(  0-C ,  1-H ) :   0.9729 B(  0-C ,  2-H ) :   0.9755 B(  0-C ,  3-H ) :   0.9733

FINAL SINGLE POINT ENERGY       -39.819451555385

DIPOLE MOMENT
-------------
                                X             Y             Z
Electronic contribution:      0.21244      -0.04402      -0.08142
Nuclear contribution   :     -0.20535       0.02291       0.10953
                        -----------------------------------------
Total Dipole Moment    :      0.00709      -0.02111       0.02811
                        -----------------------------------------
Magnitude (a.u.)       :      0.03586
Magnitude (Debye)      :      0.09114

Rotational constants in cm-1:     9.311216     8.719506     4.512150
Rotational constants in MHz : 279143.238248 261404.198905 135270.840916

                             ****ORCA TERMINATED NORMALLY****
TOTAL RUN TIME: 0 days 0 hours 0 minutes 22 seconds 369 msec
