                         Program Version 5.0.3 -  RELEASE  -
|  1> !B3LYP EPR-III Autoaux
|  2> !PAL4
|  3>
|  4> * xyz 0 2
|  5>  C    -58.7033479215    -80.9003254011    -25.3554177534
|  6>  H    -58.6366982770    -79.8436124615    -25.2912434986
|  7>  H    -59.6646622909    -81.4704020249    -25.4265066789
|  8>  H    -57.8110455259    -81.3858928887    -25.3902768681
|  9> *
| 10>
| 11> %EPRNMR
| 12>         GTENSOR   TRUE
| 13>         NUCLEI    = ALL H {AISO, ADIP, AORB}
| 14>         NUCLEI    = ALL C {AISO, ADIP, AORB}
| 15> END
| 16>
| 17>
| 18>                          ****END OF INPUT****

CARTESIAN COORDINATES (ANGSTROEM)
---------------------------------
  C    -58.703348  -80.900325  -25.355418
  H    -58.636698  -79.843612  -25.291243
  H    -59.664662  -81.470402  -25.426507
  H    -57.811046  -81.385893  -25.390277

 Total Charge           Charge          ....    0
 Multiplicity           Mult            ....    2
 Number of Electrons    NEL             ....    9
 Basis Dimension        Dim             ....   73

ORBITAL ENERGIES
----------------
                 SPIN UP ORBITALS
  NO   OCC          E(Eh)            E(eV)
   0   1.0000     -10.179383      -276.9951
   1   1.0000      -0.692858       -18.8536
   2   1.0000      -0.425891       -11.5891
   3   1.0000      -0.425295       -11.5729
   4   1.0000      -0.234677        -6.3859
   5   0.0000       0.001287         0.0350
   6   0.0000       0.036202         0.9851
   7   0.0000       0.037354         1.0165
   8   0.0000       0.047565         1.2943
   9   0.0000       0.086154         2.3444

                 SPIN DOWN ORBITALS
  NO   OCC          E(Eh)            E(eV)
   0   1.0000     -10.165029      -276.6045
   1   1.0000      -0.653659       -17.7870
   2   1.0000      -0.416632       -11.3371
   3   1.0000      -0.415195       -11.2980
   4   0.0000      -0.077415        -2.1066
   5   0.0000       0.004321         0.1176
   6   0.0000       0.035853         0.9756
   7   0.0000       0.036913         1.0044
   8   0.0000       0.060785         1.6541

MULLIKEN ATOMIC CHARGES AND SPIN POPULATIONS
--------------------------------------------
   0 C :   -0.429094    1.100822
   1 H :    0.142292   -0.033338
   2 H :    0.142424   -0.036568
   3 H :    0.144378   -0.030916
Sum of atomic charges         :   -0.0000000

LOEWDIN ATOMIC CHARGES AND SPIN POPULATIONS
-------------------------------------------
   0 C :   -0.134331    0.900398
   1 H :    0.043702    0.033855
   2 H :    0.071972    0.024001
   3 H :    0.018657    0.041746

  Mayer bond orders larger than 0.100000
B(  0-C ,  1-H ) :   0.9800 B(  0-C ,  2-H ) :   0.9781 B(  0-C ,  3-H ) :   0.9795

FINAL SINGLE POINT ENERGY       -39.823927395653

DIPOLE MOMENT
-------------
                                X             Y             Z
Electronic contribution:      0.01873      -0.00089       0.01951
Nuclear contribution   :     -0.00177       0.00080      -0.03131
                        -----------------------------------------
Total Dipole Moment    :      0.01696      -0.00009      -0.01180
                        -----------------------------------------
Magnitude (a.u.)       :      0.02066
Magnitude (Debye)      :      0.05251

Rotational constants in cm-1:    11.018918     8.824466     4.901505
Rotational constants in MHz : 330338.847762 264550.835488 146943.437891

                             ****ORCA TERMINATED NORMALLY****
TOTAL RUN TIME: 0 days 0 hours 0 minutes 18 seconds 212 msec
