                         Program Version 5.0.3 -  RELEASE  -
|  1> !B3LYP EPR-III Autoaux
|  2> !PAL4
|  3>
|  4> * xyz 0 2
|  5>  C      3.1205648936    -11.3177905377     -9.5821882985
|  6>  H      2.4737374591    -12.1599385190     -9.8519055708
|  7>  H      3.8711880624    -11.0210041610    -10.2670062238
|  8>  H      3.1157356465    -10.8477752158     -8.6233140388
|  9> *
| 10>
| 11> %EPRNMR
| 12>         GTENSOR   TRUE
| 13>         NUCLEI    = ALL H {AISO, ADIP, AORB}
| 14>         NUCLEI    = ALL C {AISO, ADIP, AORB}
| 15> END
| 16>
| 17>
| 18>                          ****END OF INPUT****

CARTESIAN COORDINATES (ANGSTROEM)
---------------------------------
  C      3.120565  -11.317791   -9.582188
  H      2.473737  -12.159939   -9.851906
  H      3.871188  -11.021004  -10.267006
  H      3.115736  -10.847775   -8.623314

 Total Charge           Charge          ....    0
 Multiplicity           Mult            ....    2
 Number of Electrons    NEL             ....    9
 Basis Dimension        Dim             ....   73

ORBITAL ENERGIES
----------------
                 SPIN UP ORBITALS
  NO   OCC          E(Eh)            E(eV)
   0   1.0000     -10.182554      -277.0814
   1   1.0000      -0.689496       -18.7621
   2   1.0000      -0.427846       -11.6423
   3   1.0000      -0.420341       -11.4381
   4   1.0000      -0.235065        -6.3964
   5   0.0000       0.001126         0.0306
   6   0.0000       0.036224         0.9857
   7   0.0000       0.037345         1.0162
   8   0.0000       0.047420         1.2904
   9   0.0000       0.089037         2.4228

                 SPIN DOWN ORBITALS
  NO   OCC          E(Eh)            E(eV)
   0   1.0000     -10.168194      -276.6906
   1   1.0000      -0.650251       -17.6942
   2   1.0000      -0.418462       -11.3869
   3   1.0000      -0.410663       -11.1747
   4   0.0000      -0.077662        -2.1133
   5   0.0000       0.004186         0.1139
   6   0.0000       0.035823         0.9748
   7   0.0000       0.036904         1.0042
   8   0.0000       0.060642         1.6502

MULLIKEN ATOMIC CHARGES AND SPIN POPULATIONS
--------------------------------------------
   0 C :   -0.427314    1.100628
   1 H :    0.142636   -0.034692
   2 H :    0.140663   -0.032909
   3 H :    0.144015   -0.033026
Sum of atomic charges         :    0.0000000

LOEWDIN ATOMIC CHARGES AND SPIN POPULATIONS
-------------------------------------------
   0 C :   -0.144280    0.904366
   1 H :    0.059015    0.028232
   2 H :    0.039789    0.034574
   3 H :    0.045477    0.032828

  Mayer bond orders larger than 0.100000
B(  0-C ,  1-H ) :   0.9778 B(  0-C ,  2-H ) :   0.9787 B(  0-C ,  3-H ) :   0.9782

FINAL SINGLE POINT ENERGY       -39.827952895872

DIPOLE MOMENT
-------------
                                X             Y             Z
Electronic contribution:     -0.04584       0.03916       0.00469
Nuclear contribution   :      0.07417      -0.05647       0.00325
                        -----------------------------------------
Total Dipole Moment    :      0.02834      -0.01731       0.00794
                        -----------------------------------------
Magnitude (a.u.)       :      0.03414
Magnitude (Debye)      :      0.08678

Rotational constants in cm-1:    10.245691     9.131340     4.838243
Rotational constants in MHz : 307158.077465 273750.699137 145046.887776

                             ****ORCA TERMINATED NORMALLY****
TOTAL RUN TIME: 0 days 0 hours 0 minutes 27 seconds 964 msec
