                         Program Version 5.0.3 -  RELEASE  -
|  1> !B3LYP EPR-III Autoaux
|  2> !PAL4
|  3>
|  4> * xyz 0 2
|  5>  C    -61.6144334497    -84.2196788934    -26.0637256096
|  6>  H    -62.2041525407    -85.1049917899    -26.1369634721
|  7>  H    -60.6074342786    -84.3769023759    -26.0986386926
|  8>  H    -62.0245033553    -83.1790195776    -26.0174341536
|  9> *
| 10>
| 11> %EPRNMR
| 12>         GTENSOR   TRUE
| 13>         NUCLEI    = ALL H {AISO, ADIP, AORB}
| 14>         NUCLEI    = ALL C {AISO, ADIP, AORB}
| 15> END
| 16>
| 17>
| 18>                          ****END OF INPUT****

CARTESIAN COORDINATES (ANGSTROEM)
---------------------------------
  C    -61.614433  -84.219679  -26.063726
  H    -62.204153  -85.104992  -26.136963
  H    -60.607434  -84.376902  -26.098639
  H    -62.024503  -83.179020  -26.017434

 Total Charge           Charge          ....    0
 Multiplicity           Mult            ....    2
 Number of Electrons    NEL             ....    9
 Basis Dimension        Dim             ....   73

ORBITAL ENERGIES
----------------
                 SPIN UP ORBITALS
  NO   OCC          E(Eh)            E(eV)
   0   1.0000     -10.180269      -277.0192
   1   1.0000      -0.692052       -18.8317
   2   1.0000      -0.426274       -11.5995
   3   1.0000      -0.423546       -11.5253
   4   1.0000      -0.234735        -6.3875
   5   0.0000       0.001201         0.0327
   6   0.0000       0.036097         0.9822
   7   0.0000       0.037452         1.0191
   8   0.0000       0.047550         1.2939
   9   0.0000       0.085771         2.3339

                 SPIN DOWN ORBITALS
  NO   OCC          E(Eh)            E(eV)
   0   1.0000     -10.165898      -276.6282
   1   1.0000      -0.652842       -17.7647
   2   1.0000      -0.417052       -11.3486
   3   1.0000      -0.413454       -11.2507
   4   0.0000      -0.077418        -2.1066
   5   0.0000       0.004256         0.1158
   6   0.0000       0.035752         0.9729
   7   0.0000       0.037014         1.0072
   8   0.0000       0.060776         1.6538

MULLIKEN ATOMIC CHARGES AND SPIN POPULATIONS
--------------------------------------------
   0 C :   -0.428879    1.101289
   1 H :    0.142044   -0.033661
   2 H :    0.143792   -0.031153
   3 H :    0.143043   -0.036475
Sum of atomic charges         :   -0.0000000

LOEWDIN ATOMIC CHARGES AND SPIN POPULATIONS
-------------------------------------------
   0 C :   -0.137241    0.901714
   1 H :    0.045954    0.032976
   2 H :    0.019896    0.041210
   3 H :    0.071391    0.024100

  Mayer bond orders larger than 0.100000
B(  0-C ,  1-H ) :   0.9797 B(  0-C ,  2-H ) :   0.9793 B(  0-C ,  3-H ) :   0.9777

FINAL SINGLE POINT ENERGY       -39.824220569477

DIPOLE MOMENT
-------------
                                X             Y             Z
Electronic contribution:      0.00948      -0.00657       0.02808
Nuclear contribution   :      0.00540      -0.00141      -0.04636
                        -----------------------------------------
Total Dipole Moment    :      0.01489      -0.00797      -0.01829
                        -----------------------------------------
Magnitude (a.u.)       :      0.02489
Magnitude (Debye)      :      0.06327

Rotational constants in cm-1:    10.999828     8.753449     4.877326
Rotational constants in MHz : 329766.548382 262421.801753 146218.540605

                             ****ORCA TERMINATED NORMALLY****
TOTAL RUN TIME: 0 days 0 hours 0 minutes 22 seconds 762 msec
