                         Program Version 5.0.3 -  RELEASE  -
|  1> !B3LYP EPR-III Autoaux
|  2> !PAL4
|  3>
|  4> * xyz 0 2
|  5>  C    -87.1530681539   -115.2010047143    -32.0536589936
|  6>  H    -86.4527849792   -114.4062984141    -31.9603185000
|  7>  H    -88.2016899305   -115.0105824451    -32.0879118121
|  8>  H    -86.9836025125   -116.3319363775    -32.1414446729
|  9> *
| 10>
| 11> %EPRNMR
| 12>         GTENSOR   TRUE
| 13>         NUCLEI    = ALL H {AISO, ADIP, AORB}
| 14>         NUCLEI    = ALL C {AISO, ADIP, AORB}
| 15> END
| 16>
| 17>
| 18>                          ****END OF INPUT****

CARTESIAN COORDINATES (ANGSTROEM)
---------------------------------
  C    -87.153068  -115.201005  -32.053659
  H    -86.452785  -114.406298  -31.960318
  H    -88.201690  -115.010582  -32.087912
  H    -86.983603  -116.331936  -32.141445

 Total Charge           Charge          ....    0
 Multiplicity           Mult            ....    2
 Number of Electrons    NEL             ....    9
 Basis Dimension        Dim             ....   73

ORBITAL ENERGIES
----------------
                 SPIN UP ORBITALS
  NO   OCC          E(Eh)            E(eV)
   0   1.0000     -10.187765      -277.2232
   1   1.0000      -0.685719       -18.6594
   2   1.0000      -0.439286       -11.9536
   3   1.0000      -0.400041       -10.8857
   4   1.0000      -0.234972        -6.3939
   5   0.0000       0.000317         0.0086
   6   0.0000       0.034415         0.9365
   7   0.0000       0.038746         1.0543
   8   0.0000       0.047404         1.2899
   9   0.0000       0.079347         2.1592

                 SPIN DOWN ORBITALS
  NO   OCC          E(Eh)            E(eV)
   0   1.0000     -10.173251      -276.8282
   1   1.0000      -0.646207       -17.5842
   2   1.0000      -0.430064       -11.7026
   3   1.0000      -0.390481       -10.6255
   4   0.0000      -0.077338        -2.1045
   5   0.0000       0.003605         0.0981
   6   0.0000       0.034114         0.9283
   7   0.0000       0.038366         1.0440
   8   0.0000       0.060684         1.6513

MULLIKEN ATOMIC CHARGES AND SPIN POPULATIONS
--------------------------------------------
   0 C :   -0.430939    1.106875
   1 H :    0.153319   -0.032177
   2 H :    0.137883   -0.034668
   3 H :    0.139736   -0.040030
Sum of atomic charges         :   -0.0000000

LOEWDIN ATOMIC CHARGES AND SPIN POPULATIONS
-------------------------------------------
   0 C :   -0.159627    0.912685
   1 H :    0.041637    0.033534
   2 H :    0.039651    0.033592
   3 H :    0.078339    0.020189

  Mayer bond orders larger than 0.100000
B(  0-C ,  1-H ) :   0.9751 B(  0-C ,  2-H ) :   0.9772 B(  0-C ,  3-H ) :   0.9762

FINAL SINGLE POINT ENERGY       -39.822712468974

DIPOLE MOMENT
-------------
                                X             Y             Z
Electronic contribution:      0.10923       0.11427       0.01835
Nuclear contribution   :     -0.13406      -0.10928      -0.02151
                        -----------------------------------------
Total Dipole Moment    :     -0.02483       0.00500      -0.00316
                        -----------------------------------------
Magnitude (a.u.)       :      0.02552
Magnitude (Debye)      :      0.06488

Rotational constants in cm-1:    10.794147     8.237581     4.672128
Rotational constants in MHz : 323600.391373 246956.461612 140066.865511

                             ****ORCA TERMINATED NORMALLY****
TOTAL RUN TIME: 0 days 0 hours 0 minutes 23 seconds 115 msec
