                         Program Version 5.0.3 -  RELEASE  -
|  1> !B3LYP EPR-III Autoaux
|  2> !PAL4
|  3>
|  4> * xyz 0 2
|  5>  C    -60.4147886743    -82.8523655117    -25.7795965837
|  6>  H    -61.4680300546    -82.7387699961    -25.7564951863
|  7>  H    -60.0787813286    -83.8017446833    -25.9092753922
|  8>  H    -59.8501836974    -81.9218680431    -25.7039785514
|  9> *
| 10>
| 11> %EPRNMR
| 12>         GTENSOR   TRUE
| 13>         NUCLEI    = ALL H {AISO, ADIP, AORB}
| 14>         NUCLEI    = ALL C {AISO, ADIP, AORB}
| 15> END
| 16>
| 17>
| 18>                          ****END OF INPUT****

CARTESIAN COORDINATES (ANGSTROEM)
---------------------------------
  C    -60.414789  -82.852366  -25.779597
  H    -61.468030  -82.738770  -25.756495
  H    -60.078781  -83.801745  -25.909275
  H    -59.850184  -81.921868  -25.703979

 Total Charge           Charge          ....    0
 Multiplicity           Mult            ....    2
 Number of Electrons    NEL             ....    9
 Basis Dimension        Dim             ....   73

ORBITAL ENERGIES
----------------
                 SPIN UP ORBITALS
  NO   OCC          E(Eh)            E(eV)
   0   1.0000     -10.176486      -276.9163
   1   1.0000      -0.695294       -18.9199
   2   1.0000      -0.442664       -12.0455
   3   1.0000      -0.413234       -11.2447
   4   1.0000      -0.234788        -6.3889
   5   0.0000       0.001638         0.0446
   6   0.0000       0.035250         0.9592
   7   0.0000       0.038284         1.0418
   8   0.0000       0.047604         1.2954
   9   0.0000       0.087881         2.3914

                 SPIN DOWN ORBITALS
  NO   OCC          E(Eh)            E(eV)
   0   1.0000     -10.162189      -276.5272
   1   1.0000      -0.656161       -17.8551
   2   1.0000      -0.433004       -11.7826
   3   1.0000      -0.403375       -10.9764
   4   0.0000      -0.077629        -2.1124
   5   0.0000       0.004568         0.1243
   6   0.0000       0.034865         0.9487
   7   0.0000       0.037828         1.0294
   8   0.0000       0.060786         1.6541

MULLIKEN ATOMIC CHARGES AND SPIN POPULATIONS
--------------------------------------------
   0 C :   -0.429769    1.099098
   1 H :    0.135019   -0.033781
   2 H :    0.150456   -0.030174
   3 H :    0.144294   -0.035143
Sum of atomic charges         :    0.0000000

LOEWDIN ATOMIC CHARGES AND SPIN POPULATIONS
-------------------------------------------
   0 C :   -0.126353    0.896036
   1 H :    0.043714    0.034173
   2 H :    0.021453    0.041403
   3 H :    0.061186    0.028387

  Mayer bond orders larger than 0.100000
B(  0-C ,  1-H ) :   0.9819 B(  0-C ,  2-H ) :   0.9810 B(  0-C ,  3-H ) :   0.9802

FINAL SINGLE POINT ENERGY       -39.823779452775

DIPOLE MOMENT
-------------
                                X             Y             Z
Electronic contribution:      0.09746      -0.07000       0.01052
Nuclear contribution   :     -0.11439       0.07099      -0.02320
                        -----------------------------------------
Total Dipole Moment    :     -0.01694       0.00099      -0.01268
                        -----------------------------------------
Magnitude (a.u.)       :      0.02118
Magnitude (Debye)      :      0.05384

Rotational constants in cm-1:    11.032460     9.155995     5.005115
Rotational constants in MHz : 330744.828524 274489.835838 150049.575215

                             ****ORCA TERMINATED NORMALLY****
TOTAL RUN TIME: 0 days 0 hours 0 minutes 21 seconds 572 msec
