                         Program Version 5.0.3 -  RELEASE  -
|  1> !B3LYP EPR-III Autoaux
|  2> !PAL4
|  3>
|  4> * xyz 0 2
|  5>  C    -63.7143091076    -86.6953891366    -26.5588055683
|  6>  H    -62.6949503007    -87.1305942092    -26.6369218761
|  7>  H    -63.9987962992    -85.6630275393    -26.4545862772
|  8>  H    -64.6769590175    -87.2642386440    -26.6420018753
|  9> *
| 10>
| 11> %EPRNMR
| 12>         GTENSOR   TRUE
| 13>         NUCLEI    = ALL H {AISO, ADIP, AORB}
| 14>         NUCLEI    = ALL C {AISO, ADIP, AORB}
| 15> END
| 16>
| 17>
| 18>                          ****END OF INPUT****

CARTESIAN COORDINATES (ANGSTROEM)
---------------------------------
  C    -63.714309  -86.695389  -26.558806
  H    -62.694950  -87.130594  -26.636922
  H    -63.998796  -85.663028  -26.454586
  H    -64.676959  -87.264239  -26.642002

 Total Charge           Charge          ....    0
 Multiplicity           Mult            ....    2
 Number of Electrons    NEL             ....    9
 Basis Dimension        Dim             ....   73

ORBITAL ENERGIES
----------------
                 SPIN UP ORBITALS
  NO   OCC          E(Eh)            E(eV)
   0   1.0000     -10.191080      -277.3134
   1   1.0000      -0.682796       -18.5798
   2   1.0000      -0.437511       -11.9053
   3   1.0000      -0.396399       -10.7866
   4   1.0000      -0.235071        -6.3966
   5   0.0000      -0.000052        -0.0014
   6   0.0000       0.034185         0.9302
   7   0.0000       0.038926         1.0592
   8   0.0000       0.047350         1.2885
   9   0.0000       0.082003         2.2314

                 SPIN DOWN ORBITALS
  NO   OCC          E(Eh)            E(eV)
   0   1.0000     -10.176502      -276.9167
   1   1.0000      -0.643262       -17.5041
   2   1.0000      -0.428493       -11.6599
   3   1.0000      -0.386776       -10.5247
   4   0.0000      -0.077291        -2.1032
   5   0.0000       0.003339         0.0909
   6   0.0000       0.033925         0.9231
   7   0.0000       0.038533         1.0485
   8   0.0000       0.060660         1.6506

MULLIKEN ATOMIC CHARGES AND SPIN POPULATIONS
--------------------------------------------
   0 C :   -0.431801    1.109141
   1 H :    0.154656   -0.034967
   2 H :    0.142507   -0.035696
   3 H :    0.134638   -0.038477
Sum of atomic charges         :    0.0000000

LOEWDIN ATOMIC CHARGES AND SPIN POPULATIONS
-------------------------------------------
   0 C :   -0.171547    0.917759
   1 H :    0.063729    0.025629
   2 H :    0.043671    0.031921
   3 H :    0.064148    0.024691

  Mayer bond orders larger than 0.100000
B(  0-C ,  1-H ) :   0.9715 B(  0-C ,  2-H ) :   0.9756 B(  0-C ,  3-H ) :   0.9767

FINAL SINGLE POINT ENERGY       -39.822423817623

DIPOLE MOMENT
-------------
                                X             Y             Z
Electronic contribution:      0.15748      -0.00927       0.02699
Nuclear contribution   :     -0.17072       0.02122      -0.04279
                        -----------------------------------------
Total Dipole Moment    :     -0.01324       0.01195      -0.01581
                        -----------------------------------------
Magnitude (a.u.)       :      0.02383
Magnitude (Debye)      :      0.06056

Rotational constants in cm-1:    10.924193     7.904601     4.588635
Rotational constants in MHz : 327499.069395 236973.966605 137563.810330

                             ****ORCA TERMINATED NORMALLY****
TOTAL RUN TIME: 0 days 0 hours 0 minutes 20 seconds 892 msec
