                         Program Version 5.0.3 -  RELEASE  -
|  1> !B3LYP EPR-III Autoaux
|  2> !PAL4
|  3>
|  4> * xyz 0 2
|  5>  C      9.2285175823     -4.3827299693     -7.9879029600
|  6>  H      9.4473937363     -3.4221013495     -8.3567106175
|  7>  H      8.7510273491     -5.1320777102     -8.7185787857
|  8>  H      9.6974886718     -4.7475459529     -7.0567522913
|  9> *
| 10>
| 11> %EPRNMR
| 12>         GTENSOR   TRUE
| 13>         NUCLEI    = ALL H {AISO, ADIP, AORB}
| 14>         NUCLEI    = ALL C {AISO, ADIP, AORB}
| 15> END
| 16>
| 17>
| 18>                          ****END OF INPUT****

CARTESIAN COORDINATES (ANGSTROEM)
---------------------------------
  C      9.228518   -4.382730   -7.987903
  H      9.447394   -3.422101   -8.356711
  H      8.751027   -5.132078   -8.718579
  H      9.697489   -4.747546   -7.056752

 Total Charge           Charge          ....    0
 Multiplicity           Mult            ....    2
 Number of Electrons    NEL             ....    9
 Basis Dimension        Dim             ....   73

ORBITAL ENERGIES
----------------
                 SPIN UP ORBITALS
  NO   OCC          E(Eh)            E(eV)
   0   1.0000     -10.191028      -277.3120
   1   1.0000      -0.682930       -18.5835
   2   1.0000      -0.425255       -11.5718
   3   1.0000      -0.409375       -11.1397
   4   1.0000      -0.237234        -6.4555
   5   0.0000       0.000036         0.0010
   6   0.0000       0.036440         0.9916
   7   0.0000       0.037265         1.0140
   8   0.0000       0.047308         1.2873
   9   0.0000       0.083956         2.2846

                 SPIN DOWN ORBITALS
  NO   OCC          E(Eh)            E(eV)
   0   1.0000     -10.176410      -276.9142
   1   1.0000      -0.643649       -17.5146
   2   1.0000      -0.415561       -11.3080
   3   1.0000      -0.400238       -10.8910
   4   0.0000      -0.078477        -2.1355
   5   0.0000       0.003309         0.0900
   6   0.0000       0.036107         0.9825
   7   0.0000       0.036984         1.0064
   8   0.0000       0.060518         1.6468

MULLIKEN ATOMIC CHARGES AND SPIN POPULATIONS
--------------------------------------------
   0 C :   -0.422613    1.102150
   1 H :    0.144695   -0.031057
   2 H :    0.135637   -0.037190
   3 H :    0.142280   -0.033903
Sum of atomic charges         :   -0.0000000

LOEWDIN ATOMIC CHARGES AND SPIN POPULATIONS
-------------------------------------------
   0 C :   -0.166248    0.916035
   1 H :    0.031496    0.036089
   2 H :    0.076633    0.020453
   3 H :    0.058119    0.027423

  Mayer bond orders larger than 0.100000
B(  0-C ,  1-H ) :   0.9747 B(  0-C ,  2-H ) :   0.9750 B(  0-C ,  3-H ) :   0.9744

FINAL SINGLE POINT ENERGY       -39.824640708609

DIPOLE MOMENT
-------------
                                X             Y             Z
Electronic contribution:     -0.08506       0.10468       0.09177
Nuclear contribution   :      0.15766      -0.11507      -0.12616
                        -----------------------------------------
Total Dipole Moment    :      0.07260      -0.01039      -0.03439
                        -----------------------------------------
Magnitude (a.u.)       :      0.08100
Magnitude (Debye)      :      0.20588

Rotational constants in cm-1:     9.615965     8.675927     4.618923
Rotational constants in MHz : 288279.374239 260097.756330 138471.836881

                             ****ORCA TERMINATED NORMALLY****
TOTAL RUN TIME: 0 days 0 hours 0 minutes 23 seconds 196 msec
