                         Program Version 5.0.3 -  RELEASE  -
|  1> !B3LYP EPR-III Autoaux
|  2> !PAL4
|  3>
|  4> * xyz 0 2
|  5>  C    -11.4921378017    -27.9762993795    -13.3601159112
|  6>  H    -12.4524025227    -28.5434639553    -13.3596877356
|  7>  H    -10.5787218892    -28.2737301110    -12.9655938677
|  8>  H    -11.5284916100    -27.0687761530    -13.9228737570
|  9> *
| 10>
| 11> %EPRNMR
| 12>         GTENSOR   TRUE
| 13>         NUCLEI    = ALL H {AISO, ADIP, AORB}
| 14>         NUCLEI    = ALL C {AISO, ADIP, AORB}
| 15> END
| 16>
| 17>
| 18>                          ****END OF INPUT****

CARTESIAN COORDINATES (ANGSTROEM)
---------------------------------
  C    -11.492138  -27.976299  -13.360116
  H    -12.452403  -28.543464  -13.359688
  H    -10.578722  -28.273730  -12.965594
  H    -11.528492  -27.068776  -13.922874

 Total Charge           Charge          ....    0
 Multiplicity           Mult            ....    2
 Number of Electrons    NEL             ....    9
 Basis Dimension        Dim             ....   73

ORBITAL ENERGIES
----------------
                 SPIN UP ORBITALS
  NO   OCC          E(Eh)            E(eV)
   0   1.0000     -10.182293      -277.0743
   1   1.0000      -0.689998       -18.7758
   2   1.0000      -0.437353       -11.9010
   3   1.0000      -0.410361       -11.1665
   4   1.0000      -0.235048        -6.3960
   5   0.0000       0.001111         0.0302
   6   0.0000       0.035350         0.9619
   7   0.0000       0.038143         1.0379
   8   0.0000       0.047510         1.2928
   9   0.0000       0.085457         2.3254

                 SPIN DOWN ORBITALS
  NO   OCC          E(Eh)            E(eV)
   0   1.0000     -10.167888      -276.6823
   1   1.0000      -0.650690       -17.7062
   2   1.0000      -0.427838       -11.6421
   3   1.0000      -0.400739       -10.9047
   4   0.0000      -0.077566        -2.1107
   5   0.0000       0.004186         0.1139
   6   0.0000       0.034991         0.9522
   7   0.0000       0.037729         1.0267
   8   0.0000       0.060736         1.6527

MULLIKEN ATOMIC CHARGES AND SPIN POPULATIONS
--------------------------------------------
   0 C :   -0.428235    1.101890
   1 H :    0.141536   -0.036760
   2 H :    0.149849   -0.031022
   3 H :    0.136850   -0.034107
Sum of atomic charges         :   -0.0000000

LOEWDIN ATOMIC CHARGES AND SPIN POPULATIONS
-------------------------------------------
   0 C :   -0.143259    0.904428
   1 H :    0.068086    0.024949
   2 H :    0.030709    0.037687
   3 H :    0.044463    0.032936

  Mayer bond orders larger than 0.100000
B(  0-C ,  1-H ) :   0.9779 B(  0-C ,  2-H ) :   0.9782 B(  0-C ,  3-H ) :   0.9794

FINAL SINGLE POINT ENERGY       -39.825488526166

DIPOLE MOMENT
-------------
                                X             Y             Z
Electronic contribution:      0.07021      -0.03238       0.09418
Nuclear contribution   :     -0.06236       0.03217      -0.12577
                        -----------------------------------------
Total Dipole Moment    :      0.00785      -0.00020      -0.03158
                        -----------------------------------------
Magnitude (a.u.)       :      0.03255
Magnitude (Debye)      :      0.08273

Rotational constants in cm-1:    10.533729     8.912701     4.835332
Rotational constants in MHz : 315793.245659 267196.055692 144959.601525

                             ****ORCA TERMINATED NORMALLY****
TOTAL RUN TIME: 0 days 0 hours 0 minutes 22 seconds 696 msec
