                         Program Version 5.0.3 -  RELEASE  -
|  1> !B3LYP EPR-III Autoaux
|  2> !PAL4
|  3>
|  4> * xyz 0 2
|  5>  C    -18.6032342077    -35.9645748365    -15.2023687953
|  6>  H    -18.5635318222    -34.8801235839    -15.5176864447
|  7>  H    -19.5496637711    -36.3164988458    -14.8375378138
|  8>  H    -17.8024868771    -36.6953717737    -15.2436292640
|  9> *
| 10>
| 11> %EPRNMR
| 12>         GTENSOR   TRUE
| 13>         NUCLEI    = ALL H {AISO, ADIP, AORB}
| 14>         NUCLEI    = ALL C {AISO, ADIP, AORB}
| 15> END
| 16>
| 17>
| 18>                          ****END OF INPUT****

CARTESIAN COORDINATES (ANGSTROEM)
---------------------------------
  C    -18.603234  -35.964575  -15.202369
  H    -18.563532  -34.880124  -15.517686
  H    -19.549664  -36.316499  -14.837538
  H    -17.802487  -36.695372  -15.243629

 Total Charge           Charge          ....    0
 Multiplicity           Mult            ....    2
 Number of Electrons    NEL             ....    9
 Basis Dimension        Dim             ....   73

ORBITAL ENERGIES
----------------
                 SPIN UP ORBITALS
  NO   OCC          E(Eh)            E(eV)
   0   1.0000     -10.188868      -277.2532
   1   1.0000      -0.683771       -18.6064
   2   1.0000      -0.427031       -11.6201
   3   1.0000      -0.411057       -11.1854
   4   1.0000      -0.234730        -6.3873
   5   0.0000       0.000331         0.0090
   6   0.0000       0.035521         0.9666
   7   0.0000       0.037829         1.0294
   8   0.0000       0.047417         1.2903
   9   0.0000       0.082040         2.2324

                 SPIN DOWN ORBITALS
  NO   OCC          E(Eh)            E(eV)
   0   1.0000     -10.174344      -276.8580
   1   1.0000      -0.644186       -17.5292
   2   1.0000      -0.417970       -11.3735
   3   1.0000      -0.401466       -10.9245
   4   0.0000      -0.077144        -2.0992
   5   0.0000       0.003647         0.0992
   6   0.0000       0.035211         0.9581
   7   0.0000       0.037445         1.0189
   8   0.0000       0.060725         1.6524

MULLIKEN ATOMIC CHARGES AND SPIN POPULATIONS
--------------------------------------------
   0 C :   -0.428318    1.106626
   1 H :    0.143612   -0.037637
   2 H :    0.138208   -0.034481
   3 H :    0.146499   -0.034509
Sum of atomic charges         :   -0.0000000

LOEWDIN ATOMIC CHARGES AND SPIN POPULATIONS
-------------------------------------------
   0 C :   -0.163932    0.914486
   1 H :    0.070913    0.022860
   2 H :    0.042606    0.032458
   3 H :    0.050413    0.030196

  Mayer bond orders larger than 0.100000
B(  0-C ,  1-H ) :   0.9743 B(  0-C ,  2-H ) :   0.9763 B(  0-C ,  3-H ) :   0.9749

FINAL SINGLE POINT ENERGY       -39.826022731961

DIPOLE MOMENT
-------------
                                X             Y             Z
Electronic contribution:      0.06433      -0.01086      -0.00540
Nuclear contribution   :     -0.07943       0.00130       0.00619
                        -----------------------------------------
Total Dipole Moment    :     -0.01510      -0.00956       0.00078
                        -----------------------------------------
Magnitude (a.u.)       :      0.01789
Magnitude (Debye)      :      0.04548

Rotational constants in cm-1:    10.282202     8.448314     4.638031
Rotational constants in MHz : 308252.653273 253274.079479 139044.658746

                             ****ORCA TERMINATED NORMALLY****
TOTAL RUN TIME: 0 days 0 hours 0 minutes 20 seconds 367 msec
