                         Program Version 5.0.3 -  RELEASE  -
|  1> !B3LYP EPR-III Autoaux
|  2> !PAL4
|  3>
|  4> * xyz 0 2
|  5>  C    -69.2270024327    -93.2627633831    -27.8185587051
|  6>  H    -69.6245591468    -94.2352155247    -27.9187110988
|  7>  H    -68.2175441442    -92.9896058923    -27.7840763699
|  8>  H    -69.7537693549    -92.3900858621    -27.7823907032
|  9> *
| 10>
| 11> %EPRNMR
| 12>         GTENSOR   TRUE
| 13>         NUCLEI    = ALL H {AISO, ADIP, AORB}
| 14>         NUCLEI    = ALL C {AISO, ADIP, AORB}
| 15> END
| 16>
| 17>
| 18>                          ****END OF INPUT****

CARTESIAN COORDINATES (ANGSTROEM)
---------------------------------
  C    -69.227002  -93.262763  -27.818559
  H    -69.624559  -94.235216  -27.918711
  H    -68.217544  -92.989606  -27.784076
  H    -69.753769  -92.390086  -27.782391

 Total Charge           Charge          ....    0
 Multiplicity           Mult            ....    2
 Number of Electrons    NEL             ....    9
 Basis Dimension        Dim             ....   73

ORBITAL ENERGIES
----------------
                 SPIN UP ORBITALS
  NO   OCC          E(Eh)            E(eV)
   0   1.0000     -10.171936      -276.7924
   1   1.0000      -0.700103       -19.0508
   2   1.0000      -0.450436       -12.2570
   3   1.0000      -0.410516       -11.1707
   4   1.0000      -0.234802        -6.3893
   5   0.0000       0.001926         0.0524
   6   0.0000       0.034677         0.9436
   7   0.0000       0.038851         1.0572
   8   0.0000       0.047667         1.2971
   9   0.0000       0.091560         2.4915

                 SPIN DOWN ORBITALS
  NO   OCC          E(Eh)            E(eV)
   0   1.0000     -10.157717      -276.4055
   1   1.0000      -0.661265       -17.9939
   2   1.0000      -0.440771       -11.9940
   3   1.0000      -0.400209       -10.8903
   4   0.0000      -0.077823        -2.1177
   5   0.0000       0.004753         0.1293
   6   0.0000       0.034295         0.9332
   7   0.0000       0.038348         1.0435
   8   0.0000       0.060805         1.6546

MULLIKEN ATOMIC CHARGES AND SPIN POPULATIONS
--------------------------------------------
   0 C :   -0.431887    1.097619
   1 H :    0.152251   -0.031231
   2 H :    0.138517   -0.033948
   3 H :    0.141119   -0.032441
Sum of atomic charges         :   -0.0000000

LOEWDIN ATOMIC CHARGES AND SPIN POPULATIONS
-------------------------------------------
   0 C :   -0.114948    0.889743
   1 H :    0.047494    0.033750
   2 H :    0.041134    0.035940
   3 H :    0.026321    0.040568

  Mayer bond orders larger than 0.100000
B(  0-C ,  1-H ) :   0.9814 B(  0-C ,  2-H ) :   0.9842 B(  0-C ,  3-H ) :   0.9837

FINAL SINGLE POINT ENERGY       -39.820521035143

DIPOLE MOMENT
-------------
                                X             Y             Z
Electronic contribution:     -0.05965      -0.10717       0.01056
Nuclear contribution   :      0.06381       0.12995      -0.02211
                        -----------------------------------------
Total Dipole Moment    :      0.00415       0.02278      -0.01155
                        -----------------------------------------
Magnitude (a.u.)       :      0.02588
Magnitude (Debye)      :      0.06577

Rotational constants in cm-1:    12.312203     8.855288     5.152431
Rotational constants in MHz : 369110.561717 265474.846688 154466.005680

                             ****ORCA TERMINATED NORMALLY****
TOTAL RUN TIME: 0 days 0 hours 0 minutes 18 seconds 32 msec
