                         Program Version 5.0.3 -  RELEASE  -
|  1> !B3LYP EPR-III Autoaux
|  2> !PAL4
|  3>
|  4> * xyz 0 2
|  5>  C      1.0084029582    -13.7455893364    -10.1196649523
|  6>  H      0.3072510485    -14.1002151987     -9.4112453540
|  7>  H      1.9037101497    -14.2860451729    -10.2920061126
|  8>  H      0.7849582706    -12.9338478060    -10.7847998450
|  9> *
| 10>
| 11> %EPRNMR
| 12>         GTENSOR   TRUE
| 13>         NUCLEI    = ALL H {AISO, ADIP, AORB}
| 14>         NUCLEI    = ALL C {AISO, ADIP, AORB}
| 15> END
| 16>
| 17>
| 18>                          ****END OF INPUT****

CARTESIAN COORDINATES (ANGSTROEM)
---------------------------------
  C      1.008403  -13.745589  -10.119665
  H      0.307251  -14.100215   -9.411245
  H      1.903710  -14.286045  -10.292006
  H      0.784958  -12.933848  -10.784800

 Total Charge           Charge          ....    0
 Multiplicity           Mult            ....    2
 Number of Electrons    NEL             ....    9
 Basis Dimension        Dim             ....   73

ORBITAL ENERGIES
----------------
                 SPIN UP ORBITALS
  NO   OCC          E(Eh)            E(eV)
   0   1.0000     -10.179121      -276.9880
   1   1.0000      -0.692078       -18.8324
   2   1.0000      -0.430430       -11.7126
   3   1.0000      -0.422124       -11.4866
   4   1.0000      -0.235210        -6.4004
   5   0.0000       0.001519         0.0413
   6   0.0000       0.036450         0.9919
   7   0.0000       0.037310         1.0152
   8   0.0000       0.047575         1.2946
   9   0.0000       0.092766         2.5243

                 SPIN DOWN ORBITALS
  NO   OCC          E(Eh)            E(eV)
   0   1.0000     -10.164776      -276.5976
   1   1.0000      -0.652905       -17.7665
   2   1.0000      -0.420800       -11.4506
   3   1.0000      -0.412423       -11.2226
   4   0.0000      -0.077758        -2.1159
   5   0.0000       0.004481         0.1219
   6   0.0000       0.036043         0.9808
   7   0.0000       0.036885         1.0037
   8   0.0000       0.060771         1.6537

MULLIKEN ATOMIC CHARGES AND SPIN POPULATIONS
--------------------------------------------
   0 C :   -0.426015    1.098603
   1 H :    0.144184   -0.032271
   2 H :    0.140642   -0.032840
   3 H :    0.141189   -0.033492
Sum of atomic charges         :    0.0000000

LOEWDIN ATOMIC CHARGES AND SPIN POPULATIONS
-------------------------------------------
   0 C :   -0.134757    0.899860
   1 H :    0.042368    0.034261
   2 H :    0.042746    0.034070
   3 H :    0.049642    0.031809

  Mayer bond orders larger than 0.100000
B(  0-C ,  1-H ) :   0.9795 B(  0-C ,  2-H ) :   0.9800 B(  0-C ,  3-H ) :   0.9797

FINAL SINGLE POINT ENERGY       -39.828117606224

DIPOLE MOMENT
-------------
                                X             Y             Z
Electronic contribution:      0.00721       0.03504       0.06720
Nuclear contribution   :     -0.02195      -0.06246      -0.09673
                        -----------------------------------------
Total Dipole Moment    :     -0.01474      -0.02742      -0.02953
                        -----------------------------------------
Magnitude (a.u.)       :      0.04291
Magnitude (Debye)      :      0.10906

Rotational constants in cm-1:    10.117349     9.583062     4.938681
Rotational constants in MHz : 303310.479440 287292.972722 148057.944742

                             ****ORCA TERMINATED NORMALLY****
TOTAL RUN TIME: 0 days 0 hours 0 minutes 22 seconds 23 msec
