                         Program Version 5.0.3 -  RELEASE  -
|  1> !B3LYP EPR-III Autoaux
|  2> !PAL4
|  3>
|  4> * xyz 0 2
|  5>  C      6.9055210538     -7.0229895434     -8.6037719790
|  6>  H      6.5353335221     -7.6452551609     -7.7540074932
|  7>  H      7.9635036963     -7.0090106964     -8.6658255630
|  8>  H      6.3126029232     -6.4134263240     -9.2693255241
|  9> *
| 10>
| 11> %EPRNMR
| 12>         GTENSOR   TRUE
| 13>         NUCLEI    = ALL H {AISO, ADIP, AORB}
| 14>         NUCLEI    = ALL C {AISO, ADIP, AORB}
| 15> END
| 16>
| 17>
| 18>                          ****END OF INPUT****

CARTESIAN COORDINATES (ANGSTROEM)
---------------------------------
  C      6.905521   -7.022990   -8.603772
  H      6.535334   -7.645255   -7.754007
  H      7.963504   -7.009011   -8.665826
  H      6.312603   -6.413426   -9.269326

 Total Charge           Charge          ....    0
 Multiplicity           Mult            ....    2
 Number of Electrons    NEL             ....    9
 Basis Dimension        Dim             ....   73

ORBITAL ENERGIES
----------------
                 SPIN UP ORBITALS
  NO   OCC          E(Eh)            E(eV)
   0   1.0000     -10.185698      -277.1669
   1   1.0000      -0.686708       -18.6863
   2   1.0000      -0.432565       -11.7707
   3   1.0000      -0.410064       -11.1584
   4   1.0000      -0.234908        -6.3922
   5   0.0000       0.000736         0.0200
   6   0.0000       0.035389         0.9630
   7   0.0000       0.038056         1.0356
   8   0.0000       0.047462         1.2915
   9   0.0000       0.084299         2.2939

                 SPIN DOWN ORBITALS
  NO   OCC          E(Eh)            E(eV)
   0   1.0000     -10.171233      -276.7733
   1   1.0000      -0.647279       -17.6134
   2   1.0000      -0.423303       -11.5187
   3   1.0000      -0.400426       -10.8962
   4   0.0000      -0.077370        -2.1053
   5   0.0000       0.003925         0.1068
   6   0.0000       0.035049         0.9537
   7   0.0000       0.037655         1.0247
   8   0.0000       0.060728         1.6525

MULLIKEN ATOMIC CHARGES AND SPIN POPULATIONS
--------------------------------------------
   0 C :   -0.428256    1.104292
   1 H :    0.140313   -0.037094
   2 H :    0.139400   -0.033682
   3 H :    0.148544   -0.033516
Sum of atomic charges         :   -0.0000000

LOEWDIN ATOMIC CHARGES AND SPIN POPULATIONS
-------------------------------------------
   0 C :   -0.154419    0.909669
   1 H :    0.066202    0.025013
   2 H :    0.037868    0.034550
   3 H :    0.050349    0.030768

  Mayer bond orders larger than 0.100000
B(  0-C ,  1-H ) :   0.9770 B(  0-C ,  2-H ) :   0.9776 B(  0-C ,  3-H ) :   0.9759

FINAL SINGLE POINT ENERGY       -39.826255143692

DIPOLE MOMENT
-------------
                                X             Y             Z
Electronic contribution:     -0.05271       0.01640      -0.07748
Nuclear contribution   :      0.07111       0.00096       0.09155
                        -----------------------------------------
Total Dipole Moment    :      0.01840       0.01735       0.01407
                        -----------------------------------------
Magnitude (a.u.)       :      0.02894
Magnitude (Debye)      :      0.07357

Rotational constants in cm-1:    10.503285     8.603893     4.734414
Rotational constants in MHz : 314880.574232 257938.237364 141934.165629

                             ****ORCA TERMINATED NORMALLY****
TOTAL RUN TIME: 0 days 0 hours 0 minutes 32 seconds 231 msec
