                         Program Version 5.0.3 -  RELEASE  -
|  1> !B3LYP EPR-III Autoaux
|  2> !PAL4
|  3>
|  4> * xyz 0 2
|  5>  C    -51.5176604092    -72.8946357645    -23.5395828059
|  6>  H    -51.5386521408    -71.8016120260    -23.5004232522
|  7>  H    -52.5092409124    -73.5586844071    -23.5744427881
|  8>  H    -50.5321831214    -73.3003332607    -23.5641772362
|  9> *
| 10>
| 11> %EPRNMR
| 12>         GTENSOR   TRUE
| 13>         NUCLEI    = ALL H {AISO, ADIP, AORB}
| 14>         NUCLEI    = ALL C {AISO, ADIP, AORB}
| 15> END
| 16>
| 17>
| 18>                          ****END OF INPUT****

CARTESIAN COORDINATES (ANGSTROEM)
---------------------------------
  C    -51.517660  -72.894636  -23.539583
  H    -51.538652  -71.801612  -23.500423
  H    -52.509241  -73.558684  -23.574443
  H    -50.532183  -73.300333  -23.564177

 Total Charge           Charge          ....    0
 Multiplicity           Mult            ....    2
 Number of Electrons    NEL             ....    9
 Basis Dimension        Dim             ....   73

ORBITAL ENERGIES
----------------
                 SPIN UP ORBITALS
  NO   OCC          E(Eh)            E(eV)
   0   1.0000     -10.195062      -277.4217
   1   1.0000      -0.679691       -18.4953
   2   1.0000      -0.416841       -11.3428
   3   1.0000      -0.411765       -11.2047
   4   1.0000      -0.234950        -6.3933
   5   0.0000      -0.001023        -0.0278
   6   0.0000       0.035599         0.9687
   7   0.0000       0.037304         1.0151
   8   0.0000       0.047192         1.2842
   9   0.0000       0.075015         2.0413

                 SPIN DOWN ORBITALS
  NO   OCC          E(Eh)            E(eV)
   0   1.0000     -10.180437      -277.0238
   1   1.0000      -0.639999       -17.4153
   2   1.0000      -0.407558       -11.0902
   3   1.0000      -0.402751       -10.9594
   4   0.0000      -0.077034        -2.0962
   5   0.0000       0.002633         0.0716
   6   0.0000       0.035461         0.9649
   7   0.0000       0.036908         1.0043
   8   0.0000       0.060552         1.6477

MULLIKEN ATOMIC CHARGES AND SPIN POPULATIONS
--------------------------------------------
   0 C :   -0.429099    1.110528
   1 H :    0.141117   -0.035464
   2 H :    0.143637   -0.041380
   3 H :    0.144346   -0.033683
Sum of atomic charges         :   -0.0000000

LOEWDIN ATOMIC CHARGES AND SPIN POPULATIONS
-------------------------------------------
   0 C :   -0.179227    0.923233
   1 H :    0.049999    0.029341
   2 H :    0.093078    0.013430
   3 H :    0.036151    0.033997

  Mayer bond orders larger than 0.100000
B(  0-C ,  1-H ) :   0.9732 B(  0-C ,  2-H ) :   0.9694 B(  0-C ,  3-H ) :   0.9729

FINAL SINGLE POINT ENERGY       -39.820324836035

DIPOLE MOMENT
-------------
                                X             Y             Z
Electronic contribution:      0.03552      -0.00933       0.00969
Nuclear contribution   :     -0.02031       0.01745      -0.01521
                        -----------------------------------------
Total Dipole Moment    :      0.01522       0.00811      -0.00552
                        -----------------------------------------
Magnitude (a.u.)       :      0.01811
Magnitude (Debye)      :      0.04602

Rotational constants in cm-1:    10.250950     7.862624     4.449952
Rotational constants in MHz : 307315.759493 235715.551893 133406.206181

                             ****ORCA TERMINATED NORMALLY****
TOTAL RUN TIME: 0 days 0 hours 0 minutes 19 seconds 660 msec
