                         Program Version 5.0.3 -  RELEASE  -
|  1> !B3LYP EPR-III Autoaux
|  2> !PAL4
|  3>
|  4> * xyz 0 2
|  5>  C    -52.0934391941    -73.5273669566    -23.6871655757
|  6>  H    -52.7222656312    -72.6273260245    -23.6098187939
|  7>  H    -52.5696527833    -74.4675291622    -23.7675211651
|  8>  H    -50.9490584655    -73.5396674763    -23.6353561279
|  9> *
| 10>
| 11> %EPRNMR
| 12>         GTENSOR   TRUE
| 13>         NUCLEI    = ALL H {AISO, ADIP, AORB}
| 14>         NUCLEI    = ALL C {AISO, ADIP, AORB}
| 15> END
| 16>
| 17>
| 18>                          ****END OF INPUT****

CARTESIAN COORDINATES (ANGSTROEM)
---------------------------------
  C    -52.093439  -73.527367  -23.687166
  H    -52.722266  -72.627326  -23.609819
  H    -52.569653  -74.467529  -23.767521
  H    -50.949058  -73.539667  -23.635356

 Total Charge           Charge          ....    0
 Multiplicity           Mult            ....    2
 Number of Electrons    NEL             ....    9
 Basis Dimension        Dim             ....   73

ORBITAL ENERGIES
----------------
                 SPIN UP ORBITALS
  NO   OCC          E(Eh)            E(eV)
   0   1.0000     -10.190227      -277.2902
   1   1.0000      -0.682787       -18.5796
   2   1.0000      -0.423264       -11.5176
   3   1.0000      -0.412916       -11.2360
   4   1.0000      -0.234834        -6.3902
   5   0.0000       0.000085         0.0023
   6   0.0000       0.035916         0.9773
   7   0.0000       0.037422         1.0183
   8   0.0000       0.047387         1.2895
   9   0.0000       0.081466         2.2168

                 SPIN DOWN ORBITALS
  NO   OCC          E(Eh)            E(eV)
   0   1.0000     -10.175669      -276.8940
   1   1.0000      -0.643153       -17.5011
   2   1.0000      -0.414031       -11.2664
   3   1.0000      -0.403576       -10.9819
   4   0.0000      -0.077114        -2.0984
   5   0.0000       0.003463         0.0942
   6   0.0000       0.035614         0.9691
   7   0.0000       0.037067         1.0087
   8   0.0000       0.060704         1.6519

MULLIKEN ATOMIC CHARGES AND SPIN POPULATIONS
--------------------------------------------
   0 C :   -0.427629    1.107296
   1 H :    0.145062   -0.035344
   2 H :    0.142030   -0.033236
   3 H :    0.140537   -0.038716
Sum of atomic charges         :    0.0000000

LOEWDIN ATOMIC CHARGES AND SPIN POPULATIONS
-------------------------------------------
   0 C :   -0.166582    0.916378
   1 H :    0.057025    0.027706
   2 H :    0.033563    0.035303
   3 H :    0.075995    0.020613

  Mayer bond orders larger than 0.100000
B(  0-C ,  1-H ) :   0.9741 B(  0-C ,  2-H ) :   0.9751 B(  0-C ,  3-H ) :   0.9740

FINAL SINGLE POINT ENERGY       -39.824986462472

DIPOLE MOMENT
-------------
                                X             Y             Z
Electronic contribution:     -0.04042       0.02453      -0.02371
Nuclear contribution   :      0.02949      -0.03929       0.03658
                        -----------------------------------------
Total Dipole Moment    :     -0.01093      -0.01476       0.01287
                        -----------------------------------------
Magnitude (a.u.)       :      0.02243
Magnitude (Debye)      :      0.05701

Rotational constants in cm-1:    10.136284     8.397893     4.594596
Rotational constants in MHz : 303878.139245 251762.497929 137742.533280

                             ****ORCA TERMINATED NORMALLY****
TOTAL RUN TIME: 0 days 0 hours 0 minutes 21 seconds 28 msec
