                         Program Version 5.0.3 -  RELEASE  -
|  1> !B3LYP EPR-III Autoaux
|  2> !PAL4
|  3>
|  4> * xyz 0 2
|  5>  C    -69.7222638417    -93.8527696755    -27.9339610504
|  6>  H    -69.6990108582    -94.9727131847    -28.0278007320
|  7>  H    -68.7814341135    -93.3707499844    -27.8530338749
|  8>  H    -70.8203808071    -93.4724581602    -27.9366072807
|  9> *
| 10>
| 11> %EPRNMR
| 12>         GTENSOR   TRUE
| 13>         NUCLEI    = ALL H {AISO, ADIP, AORB}
| 14>         NUCLEI    = ALL C {AISO, ADIP, AORB}
| 15> END
| 16>
| 17>
| 18>                          ****END OF INPUT****

CARTESIAN COORDINATES (ANGSTROEM)
---------------------------------
  C    -69.722264  -93.852770  -27.933961
  H    -69.699011  -94.972713  -28.027801
  H    -68.781434  -93.370750  -27.853034
  H    -70.820381  -93.472458  -27.936607

 Total Charge           Charge          ....    0
 Multiplicity           Mult            ....    2
 Number of Electrons    NEL             ....    9
 Basis Dimension        Dim             ....   73

ORBITAL ENERGIES
----------------
                 SPIN UP ORBITALS
  NO   OCC          E(Eh)            E(eV)
   0   1.0000     -10.194991      -277.4198
   1   1.0000      -0.679903       -18.5011
   2   1.0000      -0.436290       -11.8721
   3   1.0000      -0.393227       -10.7002
   4   1.0000      -0.235259        -6.4017
   5   0.0000      -0.000719        -0.0196
   6   0.0000       0.033917         0.9229
   7   0.0000       0.038869         1.0577
   8   0.0000       0.047171         1.2836
   9   0.0000       0.074539         2.0283

                 SPIN DOWN ORBITALS
  NO   OCC          E(Eh)            E(eV)
   0   1.0000     -10.180371      -277.0220
   1   1.0000      -0.640166       -17.4198
   2   1.0000      -0.427310       -11.6277
   3   1.0000      -0.383950       -10.4478
   4   0.0000      -0.077319        -2.1039
   5   0.0000       0.002842         0.0773
   6   0.0000       0.033665         0.9161
   7   0.0000       0.038515         1.0481
   8   0.0000       0.060503         1.6464

MULLIKEN ATOMIC CHARGES AND SPIN POPULATIONS
--------------------------------------------
   0 C :   -0.432799    1.111018
   1 H :    0.130806   -0.037913
   2 H :    0.155070   -0.032471
   3 H :    0.146923   -0.040634
Sum of atomic charges         :    0.0000000

LOEWDIN ATOMIC CHARGES AND SPIN POPULATIONS
-------------------------------------------
   0 C :   -0.179782    0.922754
   1 H :    0.061596    0.024743
   2 H :    0.035862    0.034534
   3 H :    0.082324    0.017968

  Mayer bond orders larger than 0.100000
B(  0-C ,  1-H ) :   0.9753 B(  0-C ,  2-H ) :   0.9721 B(  0-C ,  3-H ) :   0.9711

FINAL SINGLE POINT ENERGY       -39.819816291826

DIPOLE MOMENT
-------------
                                X             Y             Z
Electronic contribution:      0.10122       0.17272       0.01327
Nuclear contribution   :     -0.10046      -0.19308      -0.01166
                        -----------------------------------------
Total Dipole Moment    :      0.00076      -0.02036       0.00161
                        -----------------------------------------
Magnitude (a.u.)       :      0.02044
Magnitude (Debye)      :      0.05195

Rotational constants in cm-1:    10.203946     7.988139     4.480640
Rotational constants in MHz : 305906.592443 239478.372558 134326.214246

                             ****ORCA TERMINATED NORMALLY****
TOTAL RUN TIME: 0 days 0 hours 0 minutes 34 seconds 193 msec
