                         Program Version 5.0.3 -  RELEASE  -
|  1> !B3LYP EPR-III Autoaux
|  2> !PAL4
|  3>
|  4> * xyz 0 2
|  5>  C     10.1095343767     -3.4025703531     -7.7953700785
|  6>  H      9.7026643559     -3.6567686044     -8.7104351616
|  7>  H     11.0690778127     -3.7432053489     -7.5314871110
|  8>  H      9.4630248896     -3.0572505497     -7.0268705928
|  9> *
| 10>
| 11> %EPRNMR
| 12>         GTENSOR   TRUE
| 13>         NUCLEI    = ALL H {AISO, ADIP, AORB}
| 14>         NUCLEI    = ALL C {AISO, ADIP, AORB}
| 15> END
| 16>
| 17>
| 18>                          ****END OF INPUT****

CARTESIAN COORDINATES (ANGSTROEM)
---------------------------------
  C     10.109534   -3.402570   -7.795370
  H      9.702664   -3.656769   -8.710435
  H     11.069078   -3.743205   -7.531487
  H      9.463025   -3.057251   -7.026871

 Total Charge           Charge          ....    0
 Multiplicity           Mult            ....    2
 Number of Electrons    NEL             ....    9
 Basis Dimension        Dim             ....   73

ORBITAL ENERGIES
----------------
                 SPIN UP ORBITALS
  NO   OCC          E(Eh)            E(eV)
   0   1.0000     -10.175073      -276.8778
   1   1.0000      -0.696748       -18.9595
   2   1.0000      -0.432318       -11.7640
   3   1.0000      -0.425592       -11.5809
   4   1.0000      -0.237081        -6.4513
   5   0.0000       0.001724         0.0469
   6   0.0000       0.036806         1.0015
   7   0.0000       0.037245         1.0135
   8   0.0000       0.047505         1.2927
   9   0.0000       0.095035         2.5860

                 SPIN DOWN ORBITALS
  NO   OCC          E(Eh)            E(eV)
   0   1.0000     -10.160796      -276.4893
   1   1.0000      -0.658106       -17.9080
   2   1.0000      -0.422347       -11.4927
   3   1.0000      -0.415764       -11.3135
   4   0.0000      -0.079011        -2.1500
   5   0.0000       0.004511         0.1227
   6   0.0000       0.036355         0.9893
   7   0.0000       0.036796         1.0013
   8   0.0000       0.060589         1.6487

MULLIKEN ATOMIC CHARGES AND SPIN POPULATIONS
--------------------------------------------
   0 C :   -0.424186    1.092448
   1 H :    0.143327   -0.029890
   2 H :    0.141479   -0.030916
   3 H :    0.139380   -0.031642
Sum of atomic charges         :   -0.0000000

LOEWDIN ATOMIC CHARGES AND SPIN POPULATIONS
-------------------------------------------
   0 C :   -0.121203    0.893004
   1 H :    0.032059    0.038315
   2 H :    0.042064    0.035163
   3 H :    0.047080    0.033517

  Mayer bond orders larger than 0.100000
B(  0-C ,  1-H ) :   0.9816 B(  0-C ,  2-H ) :   0.9817 B(  0-C ,  3-H ) :   0.9819

FINAL SINGLE POINT ENERGY       -39.826182884063

DIPOLE MOMENT
-------------
                                X             Y             Z
Electronic contribution:      0.04478       0.11179      -0.06581
Nuclear contribution   :     -0.07033      -0.18701       0.08793
                        -----------------------------------------
Total Dipole Moment    :     -0.02555      -0.07521       0.02212
                        -----------------------------------------
Magnitude (a.u.)       :      0.08246
Magnitude (Debye)      :      0.20959

Rotational constants in cm-1:    10.177696     9.984345     5.108324
Rotational constants in MHz : 305119.646837 299323.132214 153143.713059

                             ****ORCA TERMINATED NORMALLY****
TOTAL RUN TIME: 0 days 0 hours 0 minutes 23 seconds 439 msec
