                         Program Version 5.0.3 -  RELEASE  -
|  1> !B3LYP EPR-III Autoaux
|  2> !PAL4
|  3>
|  4> * xyz 0 2
|  5>  C      4.9246691038     -9.2728287292     -9.1113265961
|  6>  H      5.1881191795     -9.8128081462    -10.0325980521
|  7>  H      5.7347515992     -9.2916435637     -8.3460745372
|  8>  H      4.0818457949     -8.5572798509     -8.9866890361
|  9> *
| 10>
| 11> %EPRNMR
| 12>         GTENSOR   TRUE
| 13>         NUCLEI    = ALL H {AISO, ADIP, AORB}
| 14>         NUCLEI    = ALL C {AISO, ADIP, AORB}
| 15> END
| 16>
| 17>
| 18>                          ****END OF INPUT****

CARTESIAN COORDINATES (ANGSTROEM)
---------------------------------
  C      4.924669   -9.272829   -9.111327
  H      5.188119   -9.812808  -10.032598
  H      5.734752   -9.291644   -8.346075
  H      4.081846   -8.557280   -8.986689

 Total Charge           Charge          ....    0
 Multiplicity           Mult            ....    2
 Number of Electrons    NEL             ....    9
 Basis Dimension        Dim             ....   73

ORBITAL ENERGIES
----------------
                 SPIN UP ORBITALS
  NO   OCC          E(Eh)            E(eV)
   0   1.0000     -10.193102      -277.3684
   1   1.0000      -0.680318       -18.5124
   2   1.0000      -0.426437       -11.6039
   3   1.0000      -0.405385       -11.0311
   4   1.0000      -0.236487        -6.4351
   5   0.0000      -0.000125        -0.0034
   6   0.0000       0.035535         0.9670
   7   0.0000       0.038013         1.0344
   8   0.0000       0.047295         1.2870
   9   0.0000       0.083483         2.2717

                 SPIN DOWN ORBITALS
  NO   OCC          E(Eh)            E(eV)
   0   1.0000     -10.178466      -276.9701
   1   1.0000      -0.640847       -17.4383
   2   1.0000      -0.417305       -11.3554
   3   1.0000      -0.395933       -10.7739
   4   0.0000      -0.078002        -2.1225
   5   0.0000       0.003236         0.0881
   6   0.0000       0.035249         0.9592
   7   0.0000       0.037670         1.0251
   8   0.0000       0.060558         1.6479

MULLIKEN ATOMIC CHARGES AND SPIN POPULATIONS
--------------------------------------------
   0 C :   -0.425207    1.105114
   1 H :    0.143307   -0.034617
   2 H :    0.135095   -0.035963
   3 H :    0.146805   -0.034534
Sum of atomic charges         :   -0.0000000

LOEWDIN ATOMIC CHARGES AND SPIN POPULATIONS
-------------------------------------------
   0 C :   -0.175471    0.919696
   1 H :    0.054574    0.028184
   2 H :    0.059509    0.026045
   3 H :    0.061388    0.026074

  Mayer bond orders larger than 0.100000
B(  0-C ,  1-H ) :   0.9736 B(  0-C ,  2-H ) :   0.9750 B(  0-C ,  3-H ) :   0.9723

FINAL SINGLE POINT ENERGY       -39.825701446927

DIPOLE MOMENT
-------------
                                X             Y             Z
Electronic contribution:     -0.13131      -0.06880      -0.00009
Nuclear contribution   :      0.17291       0.11748      -0.02352
                        -----------------------------------------
Total Dipole Moment    :      0.04160       0.04869      -0.02361
                        -----------------------------------------
Magnitude (a.u.)       :      0.06825
Magnitude (Debye)      :      0.17348

Rotational constants in cm-1:     9.766091     8.410594     4.559137
Rotational constants in MHz : 292780.039547 252143.255193 136679.494834

                             ****ORCA TERMINATED NORMALLY****
TOTAL RUN TIME: 0 days 0 hours 0 minutes 22 seconds 105 msec
