                         Program Version 5.0.3 -  RELEASE  -
|  1> !B3LYP EPR-III Autoaux
|  2> !PAL4
|  3>
|  4> * xyz 0 2
|  5>  C    -42.2564691395    -62.5602635811    -21.2240333120
|  6>  H    -41.2002323420    -62.9535733604    -21.2335844152
|  7>  H    -42.6024237698    -61.5599388343    -21.0736473354
|  8>  H    -43.1388732649    -63.2298479182    -21.3782183682
|  9> *
| 10>
| 11> %EPRNMR
| 12>         GTENSOR   TRUE
| 13>         NUCLEI    = ALL H {AISO, ADIP, AORB}
| 14>         NUCLEI    = ALL C {AISO, ADIP, AORB}
| 15> END
| 16>
| 17>
| 18>                          ****END OF INPUT****

CARTESIAN COORDINATES (ANGSTROEM)
---------------------------------
  C    -42.256469  -62.560264  -21.224033
  H    -41.200232  -62.953573  -21.233584
  H    -42.602424  -61.559939  -21.073647
  H    -43.138873  -63.229848  -21.378218

 Total Charge           Charge          ....    0
 Multiplicity           Mult            ....    2
 Number of Electrons    NEL             ....    9
 Basis Dimension        Dim             ....   73

ORBITAL ENERGIES
----------------
                 SPIN UP ORBITALS
  NO   OCC          E(Eh)            E(eV)
   0   1.0000     -10.191551      -277.3262
   1   1.0000      -0.681998       -18.5581
   2   1.0000      -0.432378       -11.7656
   3   1.0000      -0.401271       -10.9191
   4   1.0000      -0.234886        -6.3916
   5   0.0000      -0.000086        -0.0023
   6   0.0000       0.034705         0.9444
   7   0.0000       0.038449         1.0463
   8   0.0000       0.047355         1.2886
   9   0.0000       0.081231         2.2104

                 SPIN DOWN ORBITALS
  NO   OCC          E(Eh)            E(eV)
   0   1.0000     -10.176968      -276.9294
   1   1.0000      -0.642380       -17.4801
   2   1.0000      -0.423352       -11.5200
   3   1.0000      -0.391748       -10.6600
   4   0.0000      -0.077134        -2.0989
   5   0.0000       0.003333         0.0907
   6   0.0000       0.034445         0.9373
   7   0.0000       0.038066         1.0358
   8   0.0000       0.060679         1.6512

MULLIKEN ATOMIC CHARGES AND SPIN POPULATIONS
--------------------------------------------
   0 C :   -0.430539    1.109160
   1 H :    0.151284   -0.036643
   2 H :    0.145531   -0.034695
   3 H :    0.133724   -0.037823
Sum of atomic charges         :   -0.0000000

LOEWDIN ATOMIC CHARGES AND SPIN POPULATIONS
-------------------------------------------
   0 C :   -0.172213    0.918480
   1 H :    0.069913    0.023171
   2 H :    0.040310    0.033065
   3 H :    0.061990    0.025284

  Mayer bond orders larger than 0.100000
B(  0-C ,  1-H ) :   0.9713 B(  0-C ,  2-H ) :   0.9746 B(  0-C ,  3-H ) :   0.9762

FINAL SINGLE POINT ENERGY       -39.823411706941

DIPOLE MOMENT
-------------
                                X             Y             Z
Electronic contribution:      0.11614       0.05016       0.01150
Nuclear contribution   :     -0.12900      -0.04689      -0.01001
                        -----------------------------------------
Total Dipole Moment    :     -0.01286       0.00327       0.00149
                        -----------------------------------------
Magnitude (a.u.)       :      0.01335
Magnitude (Debye)      :      0.03394

Rotational constants in cm-1:    10.535764     8.061515     4.567045
Rotational constants in MHz : 315854.246406 241678.133182 136916.579240

                             ****ORCA TERMINATED NORMALLY****
TOTAL RUN TIME: 0 days 0 hours 0 minutes 21 seconds 212 msec
