                         Program Version 5.0.3 -  RELEASE  -
|  1> !B3LYP EPR-III Autoaux
|  2> !PAL4
|  3>
|  4> * xyz 0 2
|  5>  C    -93.1095500788   -122.6955104694    -33.2820864181
|  6>  H    -92.2687241206   -123.2849513461    -33.2921389946
|  7>  H    -93.0796274743   -121.6462748608    -33.1943531999
|  8>  H    -94.0664692500   -123.2257707725    -33.3719155215
|  9> *
| 10>
| 11> %EPRNMR
| 12>         GTENSOR   TRUE
| 13>         NUCLEI    = ALL H {AISO, ADIP, AORB}
| 14>         NUCLEI    = ALL C {AISO, ADIP, AORB}
| 15> END
| 16>
| 17>
| 18>                          ****END OF INPUT****

CARTESIAN COORDINATES (ANGSTROEM)
---------------------------------
  C    -93.109550  -122.695510  -33.282086
  H    -92.268724  -123.284951  -33.292139
  H    -93.079627  -121.646275  -33.194353
  H    -94.066469  -123.225771  -33.371916

 Total Charge           Charge          ....    0
 Multiplicity           Mult            ....    2
 Number of Electrons    NEL             ....    9
 Basis Dimension        Dim             ....   73

ORBITAL ENERGIES
----------------
                 SPIN UP ORBITALS
  NO   OCC          E(Eh)            E(eV)
   0   1.0000     -10.177673      -276.9486
   1   1.0000      -0.693646       -18.8751
   2   1.0000      -0.437466       -11.9041
   3   1.0000      -0.417492       -11.3605
   4   1.0000      -0.234663        -6.3855
   5   0.0000       0.001599         0.0435
   6   0.0000       0.036023         0.9802
   7   0.0000       0.037604         1.0232
   8   0.0000       0.047596         1.2952
   9   0.0000       0.090957         2.4751

                 SPIN DOWN ORBITALS
  NO   OCC          E(Eh)            E(eV)
   0   1.0000     -10.163361      -276.5591
   1   1.0000      -0.654401       -17.8072
   2   1.0000      -0.427675       -11.6376
   3   1.0000      -0.407924       -11.1002
   4   0.0000      -0.077509        -2.1091
   5   0.0000       0.004559         0.1240
   6   0.0000       0.035606         0.9689
   7   0.0000       0.037178         1.0117
   8   0.0000       0.060797         1.6544

MULLIKEN ATOMIC CHARGES AND SPIN POPULATIONS
--------------------------------------------
   0 C :   -0.427774    1.099204
   1 H :    0.145338   -0.031226
   2 H :    0.145932   -0.032227
   3 H :    0.136504   -0.035750
Sum of atomic charges         :    0.0000000

LOEWDIN ATOMIC CHARGES AND SPIN POPULATIONS
-------------------------------------------
   0 C :   -0.129304    0.897754
   1 H :    0.026234    0.039622
   2 H :    0.041270    0.034854
   3 H :    0.061799    0.027770

  Mayer bond orders larger than 0.100000
B(  0-C ,  1-H ) :   0.9802 B(  0-C ,  2-H ) :   0.9800 B(  0-C ,  3-H ) :   0.9807

FINAL SINGLE POINT ENERGY       -39.826000088536

DIPOLE MOMENT
-------------
                                X             Y             Z
Electronic contribution:      0.06961       0.04804       0.00827
Nuclear contribution   :     -0.06458      -0.05281      -0.00911
                        -----------------------------------------
Total Dipole Moment    :      0.00503      -0.00477      -0.00083
                        -----------------------------------------
Magnitude (a.u.)       :      0.00698
Magnitude (Debye)      :      0.01775

Rotational constants in cm-1:    10.397918     9.503631     4.965345
Rotational constants in MHz : 311721.745420 284911.681209 148857.292241

                             ****ORCA TERMINATED NORMALLY****
TOTAL RUN TIME: 0 days 0 hours 0 minutes 28 seconds 872 msec
