                         Program Version 5.0.3 -  RELEASE  -
|  1> !B3LYP EPR-III Autoaux
|  2> !PAL4
|  3>
|  4> * xyz 0 2
|  5>  C    -71.9385458016    -96.5759315757    -28.4505458936
|  6>  H    -70.9903584570    -96.1483823785    -28.3916336341
|  7>  H    -72.8732691619    -95.9874407000    -28.4041467772
|  8>  H    -72.1791613207    -97.5540107490    -28.5226009566
|  9> *
| 10>
| 11> %EPRNMR
| 12>         GTENSOR   TRUE
| 13>         NUCLEI    = ALL H {AISO, ADIP, AORB}
| 14>         NUCLEI    = ALL C {AISO, ADIP, AORB}
| 15> END
| 16>
| 17>
| 18>                          ****END OF INPUT****

CARTESIAN COORDINATES (ANGSTROEM)
---------------------------------
  C    -71.938546  -96.575932  -28.450546
  H    -70.990358  -96.148382  -28.391634
  H    -72.873269  -95.987441  -28.404147
  H    -72.179161  -97.554011  -28.522601

 Total Charge           Charge          ....    0
 Multiplicity           Mult            ....    2
 Number of Electrons    NEL             ....    9
 Basis Dimension        Dim             ....   73

ORBITAL ENERGIES
----------------
                 SPIN UP ORBITALS
  NO   OCC          E(Eh)            E(eV)
   0   1.0000     -10.175701      -276.8949
   1   1.0000      -0.696662       -18.9571
   2   1.0000      -0.450357       -12.2548
   3   1.0000      -0.406876       -11.0717
   4   1.0000      -0.234974        -6.3940
   5   0.0000       0.001634         0.0445
   6   0.0000       0.034769         0.9461
   7   0.0000       0.038699         1.0530
   8   0.0000       0.047595         1.2951
   9   0.0000       0.089121         2.4251

                 SPIN DOWN ORBITALS
  NO   OCC          E(Eh)            E(eV)
   0   1.0000     -10.161412      -276.5061
   1   1.0000      -0.657550       -17.8928
   2   1.0000      -0.440571       -11.9886
   3   1.0000      -0.397068       -10.8048
   4   0.0000      -0.077788        -2.1167
   5   0.0000       0.004544         0.1236
   6   0.0000       0.034384         0.9356
   7   0.0000       0.038245         1.0407
   8   0.0000       0.060757         1.6533

MULLIKEN ATOMIC CHARGES AND SPIN POPULATIONS
--------------------------------------------
   0 C :   -0.430446    1.099111
   1 H :    0.151934   -0.030684
   2 H :    0.131735   -0.037053
   3 H :    0.146777   -0.031375
Sum of atomic charges         :   -0.0000000

LOEWDIN ATOMIC CHARGES AND SPIN POPULATIONS
-------------------------------------------
   0 C :   -0.122369    0.894578
   1 H :    0.037757    0.036420
   2 H :    0.066557    0.026528
   3 H :    0.018055    0.042474

  Mayer bond orders larger than 0.100000
B(  0-C ,  1-H ) :   0.9806 B(  0-C ,  2-H ) :   0.9829 B(  0-C ,  3-H ) :   0.9816

FINAL SINGLE POINT ENERGY       -39.821099972854

DIPOLE MOMENT
-------------
                                X             Y             Z
Electronic contribution:      0.16013      -0.04168      -0.01639
Nuclear contribution   :     -0.17025       0.02845       0.02492
                        -----------------------------------------
Total Dipole Moment    :     -0.01012      -0.01323       0.00853
                        -----------------------------------------
Magnitude (a.u.)       :      0.01871
Magnitude (Debye)      :      0.04756

Rotational constants in cm-1:    11.364281     9.028787     5.032278
Rotational constants in MHz : 340692.569012 270676.232891 150863.897882

                             ****ORCA TERMINATED NORMALLY****
TOTAL RUN TIME: 0 days 0 hours 0 minutes 36 seconds 549 msec
