                         Program Version 5.0.3 -  RELEASE  -
|  1> !B3LYP EPR-III Autoaux
|  2> !PAL4
|  3>
|  4> * xyz 0 2
|  5>  C    -77.0363246847   -102.7543013999    -29.6551246094
|  6>  H    -77.0366214203   -103.8484975134    -29.7556906171
|  7>  H    -76.1086674593   -102.2428816871    -29.5711064686
|  8>  H    -78.0947730484   -102.3731765529    -29.6671808241
|  9> *
| 10>
| 11> %EPRNMR
| 12>         GTENSOR   TRUE
| 13>         NUCLEI    = ALL H {AISO, ADIP, AORB}
| 14>         NUCLEI    = ALL C {AISO, ADIP, AORB}
| 15> END
| 16>
| 17>
| 18>                          ****END OF INPUT****

CARTESIAN COORDINATES (ANGSTROEM)
---------------------------------
  C    -77.036325  -102.754301  -29.655125
  H    -77.036621  -103.848498  -29.755691
  H    -76.108667  -102.242882  -29.571106
  H    -78.094773  -102.373177  -29.667181

 Total Charge           Charge          ....    0
 Multiplicity           Mult            ....    2
 Number of Electrons    NEL             ....    9
 Basis Dimension        Dim             ....   73

ORBITAL ENERGIES
----------------
                 SPIN UP ORBITALS
  NO   OCC          E(Eh)            E(eV)
   0   1.0000     -10.189201      -277.2623
   1   1.0000      -0.684365       -18.6225
   2   1.0000      -0.438710       -11.9379
   3   1.0000      -0.399628       -10.8744
   4   1.0000      -0.235035        -6.3956
   5   0.0000       0.000275         0.0075
   6   0.0000       0.034406         0.9362
   7   0.0000       0.038707         1.0533
   8   0.0000       0.047289         1.2868
   9   0.0000       0.080598         2.1932

                 SPIN DOWN ORBITALS
  NO   OCC          E(Eh)            E(eV)
   0   1.0000     -10.174712      -276.8680
   1   1.0000      -0.644843       -17.5471
   2   1.0000      -0.429577       -11.6894
   3   1.0000      -0.390142       -10.6163
   4   0.0000      -0.077447        -2.1074
   5   0.0000       0.003570         0.0972
   6   0.0000       0.034076         0.9273
   7   0.0000       0.038297         1.0421
   8   0.0000       0.060573         1.6483

MULLIKEN ATOMIC CHARGES AND SPIN POPULATIONS
--------------------------------------------
   0 C :   -0.431210    1.106716
   1 H :    0.133802   -0.036334
   2 H :    0.153436   -0.032270
   3 H :    0.143971   -0.038112
Sum of atomic charges         :    0.0000000

LOEWDIN ATOMIC CHARGES AND SPIN POPULATIONS
-------------------------------------------
   0 C :   -0.163941    0.914164
   1 H :    0.054360    0.028421
   2 H :    0.040437    0.033760
   3 H :    0.069144    0.023654

  Mayer bond orders larger than 0.100000
B(  0-C ,  1-H ) :   0.9772 B(  0-C ,  2-H ) :   0.9746 B(  0-C ,  3-H ) :   0.9752

FINAL SINGLE POINT ENERGY       -39.824138674313

DIPOLE MOMENT
-------------
                                X             Y             Z
Electronic contribution:      0.09613       0.13289       0.01840
Nuclear contribution   :     -0.09825      -0.15113      -0.02144
                        -----------------------------------------
Total Dipole Moment    :     -0.00212      -0.01824      -0.00304
                        -----------------------------------------
Magnitude (a.u.)       :      0.01862
Magnitude (Debye)      :      0.04732

Rotational constants in cm-1:    10.456315     8.366441     4.647695
Rotational constants in MHz : 313472.446397 250819.591477 139334.403649

                             ****ORCA TERMINATED NORMALLY****
TOTAL RUN TIME: 0 days 0 hours 0 minutes 20 seconds 33 msec
