                         Program Version 5.0.3 -  RELEASE  -
|  1> !B3LYP EPR-III Autoaux
|  2> !PAL4
|  3>
|  4> * xyz 0 2
|  5>  C    -77.5715658884   -103.3939055277    -29.7851045564
|  6>  H    -77.1006810741   -104.3463936703    -29.8466545154
|  7>  H    -76.9203124959   -102.4827831052    -29.6602639455
|  8>  H    -78.5966614348   -103.4797617533    -29.8188446615
|  9> *
| 10>
| 11> %EPRNMR
| 12>         GTENSOR   TRUE
| 13>         NUCLEI    = ALL H {AISO, ADIP, AORB}
| 14>         NUCLEI    = ALL C {AISO, ADIP, AORB}
| 15> END
| 16>
| 17>
| 18>                          ****END OF INPUT****

CARTESIAN COORDINATES (ANGSTROEM)
---------------------------------
  C    -77.571566  -103.393906  -29.785105
  H    -77.100681  -104.346394  -29.846655
  H    -76.920312  -102.482783  -29.660264
  H    -78.596661  -103.479762  -29.818845

 Total Charge           Charge          ....    0
 Multiplicity           Mult            ....    2
 Number of Electrons    NEL             ....    9
 Basis Dimension        Dim             ....   73

ORBITAL ENERGIES
----------------
                 SPIN UP ORBITALS
  NO   OCC          E(Eh)            E(eV)
   0   1.0000     -10.181876      -277.0629
   1   1.0000      -0.691170       -18.8077
   2   1.0000      -0.436103       -11.8670
   3   1.0000      -0.410744       -11.1769
   4   1.0000      -0.234782        -6.3887
   5   0.0000       0.000989         0.0269
   6   0.0000       0.035051         0.9538
   7   0.0000       0.038291         1.0419
   8   0.0000       0.047515         1.2930
   9   0.0000       0.082721         2.2509

                 SPIN DOWN ORBITALS
  NO   OCC          E(Eh)            E(eV)
   0   1.0000     -10.167473      -276.6710
   1   1.0000      -0.651960       -17.7407
   2   1.0000      -0.426726       -11.6118
   3   1.0000      -0.400852       -10.9077
   4   0.0000      -0.077414        -2.1066
   5   0.0000       0.004095         0.1114
   6   0.0000       0.034743         0.9454
   7   0.0000       0.037853         1.0300
   8   0.0000       0.060750         1.6531

MULLIKEN ATOMIC CHARGES AND SPIN POPULATIONS
--------------------------------------------
   0 C :   -0.430788    1.103153
   1 H :    0.135143   -0.034263
   2 H :    0.147109   -0.037084
   3 H :    0.148536   -0.031806
Sum of atomic charges         :    0.0000000

LOEWDIN ATOMIC CHARGES AND SPIN POPULATIONS
-------------------------------------------
   0 C :   -0.142922    0.904142
   1 H :    0.042565    0.033713
   2 H :    0.074706    0.022785
   3 H :    0.025651    0.039360

  Mayer bond orders larger than 0.100000
B(  0-C ,  1-H ) :   0.9801 B(  0-C ,  2-H ) :   0.9763 B(  0-C ,  3-H ) :   0.9791

FINAL SINGLE POINT ENERGY       -39.822766779107

DIPOLE MOMENT
-------------
                                X             Y             Z
Electronic contribution:     -0.07154       0.07444      -0.01313
Nuclear contribution   :      0.07273      -0.09535       0.02215
                        -----------------------------------------
Total Dipole Moment    :      0.00119      -0.02091       0.00901
                        -----------------------------------------
Magnitude (a.u.)       :      0.02280
Magnitude (Debye)      :      0.05796

Rotational constants in cm-1:    11.245373     8.474740     4.833781
Rotational constants in MHz : 337127.788387 254066.325179 144913.097478

                             ****ORCA TERMINATED NORMALLY****
TOTAL RUN TIME: 0 days 0 hours 0 minutes 20 seconds 996 msec
