                         Program Version 5.0.3 -  RELEASE  -
|  1> !B3LYP EPR-III Autoaux
|  2> !PAL4
|  3>
|  4> * xyz 0 2
|  5>  C    -52.4125582426    -73.9082334162    -23.7633462207
|  6>  H    -53.2524465463    -73.2029148677    -23.7165747457
|  7>  H    -52.7174224336    -74.9537492054    -23.9157172011
|  8>  H    -51.4257829114    -73.4650178520    -23.7056589793
|  9> *
| 10>
| 11> %EPRNMR
| 12>         GTENSOR   TRUE
| 13>         NUCLEI    = ALL H {AISO, ADIP, AORB}
| 14>         NUCLEI    = ALL C {AISO, ADIP, AORB}
| 15> END
| 16>
| 17>
| 18>                          ****END OF INPUT****

CARTESIAN COORDINATES (ANGSTROEM)
---------------------------------
  C    -52.412558  -73.908233  -23.763346
  H    -53.252447  -73.202915  -23.716575
  H    -52.717422  -74.953749  -23.915717
  H    -51.425783  -73.465018  -23.705659

 Total Charge           Charge          ....    0
 Multiplicity           Mult            ....    2
 Number of Electrons    NEL             ....    9
 Basis Dimension        Dim             ....   73

ORBITAL ENERGIES
----------------
                 SPIN UP ORBITALS
  NO   OCC          E(Eh)            E(eV)
   0   1.0000     -10.188309      -277.2380
   1   1.0000      -0.684305       -18.6209
   2   1.0000      -0.434095       -11.8123
   3   1.0000      -0.404938       -11.0189
   4   1.0000      -0.234888        -6.3916
   5   0.0000       0.000483         0.0131
   6   0.0000       0.034961         0.9513
   7   0.0000       0.038360         1.0438
   8   0.0000       0.047419         1.2903
   9   0.0000       0.082518         2.2454

                 SPIN DOWN ORBITALS
  NO   OCC          E(Eh)            E(eV)
   0   1.0000     -10.173797      -276.8431
   1   1.0000      -0.644759       -17.5448
   2   1.0000      -0.424986       -11.5645
   3   1.0000      -0.395346       -10.7579
   4   0.0000      -0.077281        -2.1029
   5   0.0000       0.003748         0.1020
   6   0.0000       0.034638         0.9425
   7   0.0000       0.037966         1.0331
   8   0.0000       0.060710         1.6520

MULLIKEN ATOMIC CHARGES AND SPIN POPULATIONS
--------------------------------------------
   0 C :   -0.429164    1.106276
   1 H :    0.133231   -0.036142
   2 H :    0.146959   -0.035779
   3 H :    0.148974   -0.034355
Sum of atomic charges         :   -0.0000000

LOEWDIN ATOMIC CHARGES AND SPIN POPULATIONS
-------------------------------------------
   0 C :   -0.162861    0.913545
   1 H :    0.054070    0.028535
   2 H :    0.058228    0.027617
   3 H :    0.050563    0.030303

  Mayer bond orders larger than 0.100000
B(  0-C ,  1-H ) :   0.9775 B(  0-C ,  2-H ) :   0.9750 B(  0-C ,  3-H ) :   0.9750

FINAL SINGLE POINT ENERGY       -39.826184317150

DIPOLE MOMENT
-------------
                                X             Y             Z
Electronic contribution:      0.10668      -0.06545       0.02116
Nuclear contribution   :     -0.11840       0.07721      -0.03591
                        -----------------------------------------
Total Dipole Moment    :     -0.01173       0.01176      -0.01475
                        -----------------------------------------
Magnitude (a.u.)       :      0.02221
Magnitude (Debye)      :      0.05644

Rotational constants in cm-1:    10.319769     8.508423     4.665664
Rotational constants in MHz : 309378.880040 255076.109217 139873.078278

                             ****ORCA TERMINATED NORMALLY****
TOTAL RUN TIME: 0 days 0 hours 0 minutes 20 seconds 984 msec
