                         Program Version 5.0.3 -  RELEASE  -
|  1> !B3LYP EPR-III Autoaux
|  2> !PAL4
|  3>
|  4> * xyz 0 2
|  5>  C    -58.6134322189    -80.8180367157    -25.3390624853
|  6>  H    -58.5869005393    -79.7256214304    -25.2623277647
|  7>  H    -59.6923261065    -81.1825786186    -25.3741358300
|  8>  H    -57.6742727621    -81.3803714428    -25.3619709892
|  9> *
| 10>
| 11> %EPRNMR
| 12>         GTENSOR   TRUE
| 13>         NUCLEI    = ALL H {AISO, ADIP, AORB}
| 14>         NUCLEI    = ALL C {AISO, ADIP, AORB}
| 15> END
| 16>
| 17>
| 18>                          ****END OF INPUT****

CARTESIAN COORDINATES (ANGSTROEM)
---------------------------------
  C    -58.613432  -80.818037  -25.339062
  H    -58.586901  -79.725621  -25.262328
  H    -59.692326  -81.182579  -25.374136
  H    -57.674273  -81.380371  -25.361971

 Total Charge           Charge          ....    0
 Multiplicity           Mult            ....    2
 Number of Electrons    NEL             ....    9
 Basis Dimension        Dim             ....   73

ORBITAL ENERGIES
----------------
                 SPIN UP ORBITALS
  NO   OCC          E(Eh)            E(eV)
   0   1.0000     -10.193089      -277.3681
   1   1.0000      -0.680321       -18.5125
   2   1.0000      -0.431927       -11.7533
   3   1.0000      -0.399923       -10.8825
   4   1.0000      -0.234916        -6.3924
   5   0.0000      -0.000293        -0.0080
   6   0.0000       0.034612         0.9418
   7   0.0000       0.038520         1.0482
   8   0.0000       0.047329         1.2879
   9   0.0000       0.078288         2.1303

                 SPIN DOWN ORBITALS
  NO   OCC          E(Eh)            E(eV)
   0   1.0000     -10.178475      -276.9704
   1   1.0000      -0.640588       -17.4313
   2   1.0000      -0.423007       -11.5106
   3   1.0000      -0.390458       -10.6249
   4   0.0000      -0.077091        -2.0978
   5   0.0000       0.003184         0.0866
   6   0.0000       0.034338         0.9344
   7   0.0000       0.038161         1.0384
   8   0.0000       0.060668         1.6509

MULLIKEN ATOMIC CHARGES AND SPIN POPULATIONS
--------------------------------------------
   0 C :   -0.430592    1.110014
   1 H :    0.135787   -0.036268
   2 H :    0.142870   -0.039192
   3 H :    0.151936   -0.034553
Sum of atomic charges         :    0.0000000

LOEWDIN ATOMIC CHARGES AND SPIN POPULATIONS
-------------------------------------------
   0 C :   -0.176784    0.920778
   1 H :    0.050230    0.029083
   2 H :    0.072507    0.021577
   3 H :    0.054047    0.028562

  Mayer bond orders larger than 0.100000
B(  0-C ,  1-H ) :   0.9750 B(  0-C ,  2-H ) :   0.9732 B(  0-C ,  3-H ) :   0.9719

FINAL SINGLE POINT ENERGY       -39.823608152309

DIPOLE MOMENT
-------------
                                X             Y             Z
Electronic contribution:      0.08452      -0.10417      -0.01023
Nuclear contribution   :     -0.08484       0.12407       0.01405
                        -----------------------------------------
Total Dipole Moment    :     -0.00032       0.01990       0.00382
                        -----------------------------------------
Magnitude (a.u.)       :      0.02026
Magnitude (Debye)      :      0.05150

Rotational constants in cm-1:    10.305319     8.073983     4.527155
Rotational constants in MHz : 308945.688539 242051.910733 135720.682259

                             ****ORCA TERMINATED NORMALLY****
TOTAL RUN TIME: 0 days 0 hours 0 minutes 20 seconds 6 msec
