                         Program Version 5.0.3 -  RELEASE  -
|  1> !B3LYP EPR-III Autoaux
|  2> !PAL4
|  3>
|  4> * xyz 0 2
|  5>  C    -21.9014442496    -39.6878581839    -16.0599565061
|  6>  H    -21.4245315753    -40.5959397500    -15.7542169449
|  7>  H    -21.3493197310    -38.7182293368    -16.1875033630
|  8>  H    -22.9905264597    -39.5387403728    -16.1180415522
|  9> *
| 10>
| 11> %EPRNMR
| 12>         GTENSOR   TRUE
| 13>         NUCLEI    = ALL H {AISO, ADIP, AORB}
| 14>         NUCLEI    = ALL C {AISO, ADIP, AORB}
| 15> END
| 16>
| 17>
| 18>                          ****END OF INPUT****

CARTESIAN COORDINATES (ANGSTROEM)
---------------------------------
  C    -21.901444  -39.687858  -16.059957
  H    -21.424532  -40.595940  -15.754217
  H    -21.349320  -38.718229  -16.187503
  H    -22.990526  -39.538740  -16.118042

 Total Charge           Charge          ....    0
 Multiplicity           Mult            ....    2
 Number of Electrons    NEL             ....    9
 Basis Dimension        Dim             ....   73

ORBITAL ENERGIES
----------------
                 SPIN UP ORBITALS
  NO   OCC          E(Eh)            E(eV)
   0   1.0000     -10.190058      -277.2856
   1   1.0000      -0.683322       -18.5941
   2   1.0000      -0.434213       -11.8155
   3   1.0000      -0.403279       -10.9738
   4   1.0000      -0.235746        -6.4150
   5   0.0000       0.000277         0.0075
   6   0.0000       0.035148         0.9564
   7   0.0000       0.038224         1.0401
   8   0.0000       0.047271         1.2863
   9   0.0000       0.085423         2.3245

                 SPIN DOWN ORBITALS
  NO   OCC          E(Eh)            E(eV)
   0   1.0000     -10.175541      -276.8905
   1   1.0000      -0.643853       -17.5201
   2   1.0000      -0.424943       -11.5633
   3   1.0000      -0.393946       -10.7198
   4   0.0000      -0.077800        -2.1170
   5   0.0000       0.003550         0.0966
   6   0.0000       0.034802         0.9470
   7   0.0000       0.037841         1.0297
   8   0.0000       0.060533         1.6472

MULLIKEN ATOMIC CHARGES AND SPIN POPULATIONS
--------------------------------------------
   0 C :   -0.427405    1.104595
   1 H :    0.150619   -0.032013
   2 H :    0.136471   -0.037004
   3 H :    0.140315   -0.035577
Sum of atomic charges         :    0.0000000

LOEWDIN ATOMIC CHARGES AND SPIN POPULATIONS
-------------------------------------------
   0 C :   -0.165300    0.914939
   1 H :    0.043274    0.032693
   2 H :    0.065724    0.024462
   3 H :    0.056302    0.027907

  Mayer bond orders larger than 0.100000
B(  0-C ,  1-H ) :   0.9741 B(  0-C ,  2-H ) :   0.9760 B(  0-C ,  3-H ) :   0.9756

FINAL SINGLE POINT ENERGY       -39.825903742067

DIPOLE MOMENT
-------------
                                X             Y             Z
Electronic contribution:      0.03669      -0.14184      -0.04627
Nuclear contribution   :     -0.04500       0.15789       0.09002
                        -----------------------------------------
Total Dipole Moment    :     -0.00831       0.01605       0.04375
                        -----------------------------------------
Magnitude (a.u.)       :      0.04734
Magnitude (Debye)      :      0.12032

Rotational constants in cm-1:     9.875200     8.672477     4.636761
Rotational constants in MHz : 296051.041086 259994.323692 139006.584586

                             ****ORCA TERMINATED NORMALLY****
TOTAL RUN TIME: 0 days 0 hours 0 minutes 28 seconds 730 msec
