                         Program Version 5.0.3 -  RELEASE  -
|  1> !B3LYP EPR-III Autoaux
|  2> !PAL4
|  3>
|  4> * xyz 0 2
|  5>  C    -39.6794396357    -59.6498972124    -20.5656569731
|  6>  H    -40.5940564542    -60.2170790434    -20.5611924475
|  7>  H    -38.7538424866    -60.3581955072    -20.7612215531
|  8>  H    -39.5969432359    -58.5825494170    -20.3467325680
|  9> *
| 10>
| 11> %EPRNMR
| 12>         GTENSOR   TRUE
| 13>         NUCLEI    = ALL H {AISO, ADIP, AORB}
| 14>         NUCLEI    = ALL C {AISO, ADIP, AORB}
| 15> END
| 16>
| 17>
| 18>                          ****END OF INPUT****

CARTESIAN COORDINATES (ANGSTROEM)
---------------------------------
  C    -39.679440  -59.649897  -20.565657
  H    -40.594056  -60.217079  -20.561192
  H    -38.753842  -60.358196  -20.761222
  H    -39.596943  -58.582549  -20.346733

 Total Charge           Charge          ....    0
 Multiplicity           Mult            ....    2
 Number of Electrons    NEL             ....    9
 Basis Dimension        Dim             ....   73

ORBITAL ENERGIES
----------------
                 SPIN UP ORBITALS
  NO   OCC          E(Eh)            E(eV)
   0   1.0000     -10.195095      -277.4226
   1   1.0000      -0.679170       -18.4811
   2   1.0000      -0.433080       -11.7847
   3   1.0000      -0.396640       -10.7931
   4   1.0000      -0.235304        -6.4029
   5   0.0000      -0.000682        -0.0186
   6   0.0000       0.034811         0.9472
   7   0.0000       0.038243         1.0406
   8   0.0000       0.047266         1.2862
   9   0.0000       0.078500         2.1361

                 SPIN DOWN ORBITALS
  NO   OCC          E(Eh)            E(eV)
   0   1.0000     -10.180426      -277.0235
   1   1.0000      -0.639303       -17.3963
   2   1.0000      -0.423890       -11.5346
   3   1.0000      -0.387602       -10.5472
   4   0.0000      -0.077224        -2.1014
   5   0.0000       0.002888         0.0786
   6   0.0000       0.034533         0.9397
   7   0.0000       0.037968         1.0332
   8   0.0000       0.060605         1.6492

MULLIKEN ATOMIC CHARGES AND SPIN POPULATIONS
--------------------------------------------
   0 C :   -0.428410    1.110665
   1 H :    0.144050   -0.034778
   2 H :    0.132677   -0.041823
   3 H :    0.151684   -0.034064
Sum of atomic charges         :   -0.0000000

LOEWDIN ATOMIC CHARGES AND SPIN POPULATIONS
-------------------------------------------
   0 C :   -0.178555    0.923239
   1 H :    0.041195    0.032125
   2 H :    0.085593    0.015537
   3 H :    0.051767    0.029099

  Mayer bond orders larger than 0.100000
B(  0-C ,  1-H ) :   0.9728 B(  0-C ,  2-H ) :   0.9738 B(  0-C ,  3-H ) :   0.9710

FINAL SINGLE POINT ENERGY       -39.821354980823

DIPOLE MOMENT
-------------
                                X             Y             Z
Electronic contribution:     -0.08440       0.14710      -0.00038
Nuclear contribution   :      0.07006      -0.15599       0.02085
                        -----------------------------------------
Total Dipole Moment    :     -0.01434      -0.00889       0.02047
                        -----------------------------------------
Magnitude (a.u.)       :      0.02653
Magnitude (Debye)      :      0.06743

Rotational constants in cm-1:     9.854068     8.159444     4.467003
Rotational constants in MHz : 295417.516658 244613.989378 133917.391302

                             ****ORCA TERMINATED NORMALLY****
TOTAL RUN TIME: 0 days 0 hours 0 minutes 18 seconds 357 msec
