                         Program Version 5.0.3 -  RELEASE  -
|  1> !B3LYP EPR-III Autoaux
|  2> !PAL4
|  3>
|  4> * xyz 0 2
|  5>  C      6.6614033928     -7.2912033846     -8.6436442739
|  6>  H      6.7140035728     -8.3070529358     -8.1899623111
|  7>  H      7.3020256287     -6.4211851125     -8.4115122730
|  8>  H      6.0543966858     -7.2815606350     -9.5718559159
|  9> *
| 10>
| 11> %EPRNMR
| 12>         GTENSOR   TRUE
| 13>         NUCLEI    = ALL H {AISO, ADIP, AORB}
| 14>         NUCLEI    = ALL C {AISO, ADIP, AORB}
| 15> END
| 16>
| 17>
| 18>                          ****END OF INPUT****

CARTESIAN COORDINATES (ANGSTROEM)
---------------------------------
  C      6.661403   -7.291203   -8.643644
  H      6.714004   -8.307053   -8.189962
  H      7.302026   -6.421185   -8.411512
  H      6.054397   -7.281561   -9.571856

 Total Charge           Charge          ....    0
 Multiplicity           Mult            ....    2
 Number of Electrons    NEL             ....    9
 Basis Dimension        Dim             ....   73

ORBITAL ENERGIES
----------------
                 SPIN UP ORBITALS
  NO   OCC          E(Eh)            E(eV)
   0   1.0000     -10.193227      -277.3718
   1   1.0000      -0.680301       -18.5119
   2   1.0000      -0.427983       -11.6460
   3   1.0000      -0.403540       -10.9809
   4   1.0000      -0.236511        -6.4358
   5   0.0000      -0.000159        -0.0043
   6   0.0000       0.035308         0.9608
   7   0.0000       0.038210         1.0398
   8   0.0000       0.047289         1.2868
   9   0.0000       0.082254         2.2382

                 SPIN DOWN ORBITALS
  NO   OCC          E(Eh)            E(eV)
   0   1.0000     -10.178587      -276.9734
   1   1.0000      -0.640842       -17.4382
   2   1.0000      -0.418885       -11.3984
   3   1.0000      -0.394046       -10.7225
   4   0.0000      -0.078002        -2.1225
   5   0.0000       0.003206         0.0872
   6   0.0000       0.035027         0.9531
   7   0.0000       0.037865         1.0304
   8   0.0000       0.060548         1.6476

MULLIKEN ATOMIC CHARGES AND SPIN POPULATIONS
--------------------------------------------
   0 C :   -0.425927    1.105337
   1 H :    0.142570   -0.035652
   2 H :    0.148274   -0.033939
   3 H :    0.135083   -0.035746
Sum of atomic charges         :    0.0000000

LOEWDIN ATOMIC CHARGES AND SPIN POPULATIONS
-------------------------------------------
   0 C :   -0.176062    0.919888
   1 H :    0.061001    0.025945
   2 H :    0.058161    0.027253
   3 H :    0.056901    0.026913

  Mayer bond orders larger than 0.100000
B(  0-C ,  1-H ) :   0.9736 B(  0-C ,  2-H ) :   0.9722 B(  0-C ,  3-H ) :   0.9751

FINAL SINGLE POINT ENERGY       -39.825295263626

DIPOLE MOMENT
-------------
                                X             Y             Z
Electronic contribution:     -0.02151       0.07889       0.13338
Nuclear contribution   :      0.06462      -0.10207      -0.18167
                        -----------------------------------------
Total Dipole Moment    :      0.04311      -0.02318      -0.04829
                        -----------------------------------------
Magnitude (a.u.)       :      0.06876
Magnitude (Debye)      :      0.17478

Rotational constants in cm-1:     9.890018     8.314027     4.557029
Rotational constants in MHz : 296495.271506 249248.273698 136616.303412

                             ****ORCA TERMINATED NORMALLY****
TOTAL RUN TIME: 0 days 0 hours 0 minutes 33 seconds 990 msec
