                         Program Version 5.0.3 -  RELEASE  -
|  1> !B3LYP EPR-III Autoaux
|  2> !PAL4
|  3>
|  4> * xyz 0 2
|  5>  C    -90.4588611074   -119.3406590707    -32.7426761073
|  6>  H    -91.4925950398   -119.7131650069    -32.8196664082
|  7>  H    -89.6349631540   -120.0767255848    -32.7655773792
|  8>  H    -90.4248694821   -118.2229314388    -32.6467215705
|  9> *
| 10>
| 11> %EPRNMR
| 12>         GTENSOR   TRUE
| 13>         NUCLEI    = ALL H {AISO, ADIP, AORB}
| 14>         NUCLEI    = ALL C {AISO, ADIP, AORB}
| 15> END
| 16>
| 17>
| 18>                          ****END OF INPUT****

CARTESIAN COORDINATES (ANGSTROEM)
---------------------------------
  C    -90.458861  -119.340659  -32.742676
  H    -91.492595  -119.713165  -32.819666
  H    -89.634963  -120.076726  -32.765577
  H    -90.424869  -118.222931  -32.646722

 Total Charge           Charge          ....    0
 Multiplicity           Mult            ....    2
 Number of Electrons    NEL             ....    9
 Basis Dimension        Dim             ....   73

ORBITAL ENERGIES
----------------
                 SPIN UP ORBITALS
  NO   OCC          E(Eh)            E(eV)
   0   1.0000     -10.193016      -277.3661
   1   1.0000      -0.680094       -18.5063
   2   1.0000      -0.429734       -11.6937
   3   1.0000      -0.402370       -10.9491
   4   1.0000      -0.234847        -6.3905
   5   0.0000      -0.000215        -0.0059
   6   0.0000       0.034861         0.9486
   7   0.0000       0.038329         1.0430
   8   0.0000       0.047339         1.2882
   9   0.0000       0.079464         2.1623

                 SPIN DOWN ORBITALS
  NO   OCC          E(Eh)            E(eV)
   0   1.0000     -10.178408      -276.9686
   1   1.0000      -0.640353       -17.4249
   2   1.0000      -0.420848       -11.4519
   3   1.0000      -0.392888       -10.6910
   4   0.0000      -0.077057        -2.0968
   5   0.0000       0.003249         0.0884
   6   0.0000       0.034579         0.9409
   7   0.0000       0.037965         1.0331
   8   0.0000       0.060681         1.6512

MULLIKEN ATOMIC CHARGES AND SPIN POPULATIONS
--------------------------------------------
   0 C :   -0.429925    1.109681
   1 H :    0.134995   -0.036485
   2 H :    0.150185   -0.035475
   3 H :    0.144745   -0.037721
Sum of atomic charges         :    0.0000000

LOEWDIN ATOMIC CHARGES AND SPIN POPULATIONS
-------------------------------------------
   0 C :   -0.176937    0.920694
   1 H :    0.053007    0.028120
   2 H :    0.058547    0.026928
   3 H :    0.065384    0.024258

  Mayer bond orders larger than 0.100000
B(  0-C ,  1-H ) :   0.9751 B(  0-C ,  2-H ) :   0.9719 B(  0-C ,  3-H ) :   0.9730

FINAL SINGLE POINT ENERGY       -39.824669727105

DIPOLE MOMENT
-------------
                                X             Y             Z
Electronic contribution:      0.11520      -0.01120       0.00271
Nuclear contribution   :     -0.13179       0.00686      -0.00295
                        -----------------------------------------
Total Dipole Moment    :     -0.01659      -0.00434      -0.00024
                        -----------------------------------------
Magnitude (a.u.)       :      0.01715
Magnitude (Debye)      :      0.04359

Rotational constants in cm-1:    10.171158     8.166829     4.529736
Rotational constants in MHz : 304923.650026 244835.360589 135798.059643

                             ****ORCA TERMINATED NORMALLY****
TOTAL RUN TIME: 0 days 0 hours 0 minutes 32 seconds 680 msec
