                         Program Version 5.0.3 -  RELEASE  -
|  1> !B3LYP EPR-III Autoaux
|  2> !PAL4
|  3>
|  4> * xyz 0 2
|  5>  C     -5.0922534948    -20.7323557045    -11.7172771938
|  6>  H     -5.3008939509    -21.7141019202    -11.3993587274
|  7>  H     -4.2312983003    -20.0472531135    -11.3121563266
|  8>  H     -5.9856645913    -20.3773777312    -12.3358599648
|  9> *
| 10>
| 11> %EPRNMR
| 12>         GTENSOR   TRUE
| 13>         NUCLEI    = ALL H {AISO, ADIP, AORB}
| 14>         NUCLEI    = ALL C {AISO, ADIP, AORB}
| 15> END
| 16>
| 17>
| 18>                          ****END OF INPUT****

CARTESIAN COORDINATES (ANGSTROEM)
---------------------------------
  C     -5.092253  -20.732356  -11.717277
  H     -5.300894  -21.714102  -11.399359
  H     -4.231298  -20.047253  -11.312156
  H     -5.985665  -20.377378  -12.335860

 Total Charge           Charge          ....    0
 Multiplicity           Mult            ....    2
 Number of Electrons    NEL             ....    9
 Basis Dimension        Dim             ....   73

ORBITAL ENERGIES
----------------
                 SPIN UP ORBITALS
  NO   OCC          E(Eh)            E(eV)
   0   1.0000     -10.196624      -277.4642
   1   1.0000      -0.679143       -18.4804
   2   1.0000      -0.425238       -11.5713
   3   1.0000      -0.399146       -10.8613
   4   1.0000      -0.236382        -6.4323
   5   0.0000      -0.001345        -0.0366
   6   0.0000       0.034656         0.9430
   7   0.0000       0.038415         1.0453
   8   0.0000       0.047195         1.2843
   9   0.0000       0.074880         2.0376

                 SPIN DOWN ORBITALS
  NO   OCC          E(Eh)            E(eV)
   0   1.0000     -10.181890      -277.0633
   1   1.0000      -0.639678       -17.4065
   2   1.0000      -0.416193       -11.3252
   3   1.0000      -0.389625       -10.6022
   4   0.0000      -0.077750        -2.1157
   5   0.0000       0.002317         0.0631
   6   0.0000       0.034537         0.9398
   7   0.0000       0.038075         1.0361
   8   0.0000       0.060484         1.6458

MULLIKEN ATOMIC CHARGES AND SPIN POPULATIONS
--------------------------------------------
   0 C :   -0.429341    1.109743
   1 H :    0.144430   -0.032954
   2 H :    0.150323   -0.038231
   3 H :    0.134587   -0.038557
Sum of atomic charges         :   -0.0000000

LOEWDIN ATOMIC CHARGES AND SPIN POPULATIONS
-------------------------------------------
   0 C :   -0.184886    0.925262
   1 H :    0.027860    0.036292
   2 H :    0.086251    0.016801
   3 H :    0.070775    0.021645

  Mayer bond orders larger than 0.100000
B(  0-C ,  1-H ) :   0.9724 B(  0-C ,  2-H ) :   0.9677 B(  0-C ,  3-H ) :   0.9740

FINAL SINGLE POINT ENERGY       -39.817292504956

DIPOLE MOMENT
-------------
                                X             Y             Z
Electronic contribution:      0.14102      -0.04543      -0.02648
Nuclear contribution   :     -0.18070       0.04372       0.07829
                        -----------------------------------------
Total Dipole Moment    :     -0.03967      -0.00171       0.05181
                        -----------------------------------------
Magnitude (a.u.)       :      0.06528
Magnitude (Debye)      :      0.16592

Rotational constants in cm-1:    10.658531     7.500392     4.434278
Rotational constants in MHz : 319534.725775 224856.094001 132936.302503

                             ****ORCA TERMINATED NORMALLY****
TOTAL RUN TIME: 0 days 0 hours 0 minutes 20 seconds 642 msec
