                         Program Version 5.0.3 -  RELEASE  -
|  1> !B3LYP EPR-III Autoaux
|  2> !PAL4
|  3>
|  4> * xyz 0 2
|  5>  C      1.3077825807    -13.3889939224    -10.0437425135
|  6>  H      0.8024004498    -13.3865136056     -9.1781416680
|  7>  H      1.3745761058    -14.4184132854    -10.4571976039
|  8>  H      1.7395331400    -12.6062701560    -10.5973955999
|  9> *
| 10>
| 11> %EPRNMR
| 12>         GTENSOR   TRUE
| 13>         NUCLEI    = ALL H {AISO, ADIP, AORB}
| 14>         NUCLEI    = ALL C {AISO, ADIP, AORB}
| 15> END
| 16>
| 17>
| 18>                          ****END OF INPUT****

CARTESIAN COORDINATES (ANGSTROEM)
---------------------------------
  C      1.307783  -13.388994  -10.043743
  H      0.802400  -13.386514   -9.178142
  H      1.374576  -14.418413  -10.457198
  H      1.739533  -12.606270  -10.597396

 Total Charge           Charge          ....    0
 Multiplicity           Mult            ....    2
 Number of Electrons    NEL             ....    9
 Basis Dimension        Dim             ....   73

ORBITAL ENERGIES
----------------
                 SPIN UP ORBITALS
  NO   OCC          E(Eh)            E(eV)
   0   1.0000     -10.176625      -276.9200
   1   1.0000      -0.696022       -18.9397
   2   1.0000      -0.451449       -12.2845
   3   1.0000      -0.404946       -11.0191
   4   1.0000      -0.235074        -6.3967
   5   0.0000       0.001575         0.0429
   6   0.0000       0.034701         0.9443
   7   0.0000       0.038710         1.0533
   8   0.0000       0.047572         1.2945
   9   0.0000       0.088672         2.4129

                 SPIN DOWN ORBITALS
  NO   OCC          E(Eh)            E(eV)
   0   1.0000     -10.162319      -276.5308
   1   1.0000      -0.656846       -17.8737
   2   1.0000      -0.441625       -12.0172
   3   1.0000      -0.395256       -10.7555
   4   0.0000      -0.077820        -2.1176
   5   0.0000       0.004498         0.1224
   6   0.0000       0.034316         0.9338
   7   0.0000       0.038269         1.0414
   8   0.0000       0.060734         1.6526

MULLIKEN ATOMIC CHARGES AND SPIN POPULATIONS
--------------------------------------------
   0 C :   -0.430231    1.099525
   1 H :    0.151333   -0.030379
   2 H :    0.128181   -0.037178
   3 H :    0.150717   -0.031968
Sum of atomic charges         :    0.0000000

LOEWDIN ATOMIC CHARGES AND SPIN POPULATIONS
-------------------------------------------
   0 C :   -0.123896    0.895631
   1 H :    0.013661    0.043752
   2 H :    0.067793    0.025824
   3 H :    0.042442    0.034793

  Mayer bond orders larger than 0.100000
B(  0-C ,  1-H ) :   0.9812 B(  0-C ,  2-H ) :   0.9829 B(  0-C ,  3-H ) :   0.9804

FINAL SINGLE POINT ENERGY       -39.820703614769

DIPOLE MOMENT
-------------
                                X             Y             Z
Electronic contribution:     -0.00392       0.17604       0.07629
Nuclear contribution   :     -0.00512      -0.18303      -0.07608
                        -----------------------------------------
Total Dipole Moment    :     -0.00904      -0.00699       0.00021
                        -----------------------------------------
Magnitude (a.u.)       :      0.01143
Magnitude (Debye)      :      0.02905

Rotational constants in cm-1:    10.955371     9.217838     5.006306
Rotational constants in MHz : 328433.767364 276343.824476 150085.271538

                             ****ORCA TERMINATED NORMALLY****
TOTAL RUN TIME: 0 days 0 hours 0 minutes 22 seconds 400 msec
