                         Program Version 5.0.3 -  RELEASE  -
|  1> !B3LYP EPR-III Autoaux
|  2> !PAL4
|  3>
|  4> * xyz 0 2
|  5>  C     -1.1219123111    -16.1736204772    -10.6807846738
|  6>  H     -1.8630606957    -15.8990564462    -11.3896552230
|  7>  H     -1.2014737775    -17.2005947383    -10.2258341090
|  8>  H     -0.2394900085    -15.6031591403    -10.4563275480
|  9> *
| 10>
| 11> %EPRNMR
| 12>         GTENSOR   TRUE
| 13>         NUCLEI    = ALL H {AISO, ADIP, AORB}
| 14>         NUCLEI    = ALL C {AISO, ADIP, AORB}
| 15> END
| 16>
| 17>
| 18>                          ****END OF INPUT****

CARTESIAN COORDINATES (ANGSTROEM)
---------------------------------
  C     -1.121912  -16.173620  -10.680785
  H     -1.863061  -15.899056  -11.389655
  H     -1.201474  -17.200595  -10.225834
  H     -0.239490  -15.603159  -10.456328

 Total Charge           Charge          ....    0
 Multiplicity           Mult            ....    2
 Number of Electrons    NEL             ....    9
 Basis Dimension        Dim             ....   73

ORBITAL ENERGIES
----------------
                 SPIN UP ORBITALS
  NO   OCC          E(Eh)            E(eV)
   0   1.0000     -10.186451      -277.1874
   1   1.0000      -0.685969       -18.6662
   2   1.0000      -0.433327       -11.7914
   3   1.0000      -0.409107       -11.1324
   4   1.0000      -0.235269        -6.4020
   5   0.0000       0.000750         0.0204
   6   0.0000       0.035764         0.9732
   7   0.0000       0.037749         1.0272
   8   0.0000       0.047441         1.2909
   9   0.0000       0.087536         2.3820

                 SPIN DOWN ORBITALS
  NO   OCC          E(Eh)            E(eV)
   0   1.0000     -10.171967      -276.7933
   1   1.0000      -0.646487       -17.5918
   2   1.0000      -0.423812       -11.5325
   3   1.0000      -0.399805       -10.8792
   4   0.0000      -0.077543        -2.1101
   5   0.0000       0.003931         0.1070
   6   0.0000       0.035397         0.9632
   7   0.0000       0.037387         1.0174
   8   0.0000       0.060697         1.6517

MULLIKEN ATOMIC CHARGES AND SPIN POPULATIONS
--------------------------------------------
   0 C :   -0.426110    1.103520
   1 H :    0.146411   -0.032670
   2 H :    0.134220   -0.037354
   3 H :    0.145479   -0.033496
Sum of atomic charges         :    0.0000000

LOEWDIN ATOMIC CHARGES AND SPIN POPULATIONS
-------------------------------------------
   0 C :   -0.154801    0.910323
   1 H :    0.039903    0.034018
   2 H :    0.068441    0.023812
   3 H :    0.046456    0.031848

  Mayer bond orders larger than 0.100000
B(  0-C ,  1-H ) :   0.9763 B(  0-C ,  2-H ) :   0.9775 B(  0-C ,  3-H ) :   0.9762

FINAL SINGLE POINT ENERGY       -39.826903726302

DIPOLE MOMENT
-------------
                                X             Y             Z
Electronic contribution:     -0.02847       0.12182      -0.00596
Nuclear contribution   :      0.04625      -0.13637      -0.02208
                        -----------------------------------------
Total Dipole Moment    :      0.01778      -0.01455      -0.02804
                        -----------------------------------------
Magnitude (a.u.)       :      0.03625
Magnitude (Debye)      :      0.09214

Rotational constants in cm-1:     9.572984     9.267555     4.720675
Rotational constants in MHz : 286990.835513 277834.322497 141522.285749

                             ****ORCA TERMINATED NORMALLY****
TOTAL RUN TIME: 0 days 0 hours 0 minutes 21 seconds 81 msec
