                         Program Version 5.0.3 -  RELEASE  -
|  1> !B3LYP EPR-III Autoaux
|  2> !PAL4
|  3>
|  4> * xyz 0 2
|  5>  C    -24.1488379282    -42.2270081316    -16.6351591009
|  6>  H    -23.9122218982    -41.1389903668    -16.6662283107
|  7>  H    -25.1225707278    -42.3547732852    -16.3436873649
|  8>  H    -23.4478544567    -42.9902961533    -16.8652427448
|  9> *
| 10>
| 11> %EPRNMR
| 12>         GTENSOR   TRUE
| 13>         NUCLEI    = ALL H {AISO, ADIP, AORB}
| 14>         NUCLEI    = ALL C {AISO, ADIP, AORB}
| 15> END
| 16>
| 17>
| 18>                          ****END OF INPUT****

CARTESIAN COORDINATES (ANGSTROEM)
---------------------------------
  C    -24.148838  -42.227008  -16.635159
  H    -23.912222  -41.138990  -16.666228
  H    -25.122571  -42.354773  -16.343687
  H    -23.447854  -42.990296  -16.865243

 Total Charge           Charge          ....    0
 Multiplicity           Mult            ....    2
 Number of Electrons    NEL             ....    9
 Basis Dimension        Dim             ....   73

ORBITAL ENERGIES
----------------
                 SPIN UP ORBITALS
  NO   OCC          E(Eh)            E(eV)
   0   1.0000     -10.180038      -277.0129
   1   1.0000      -0.692468       -18.8430
   2   1.0000      -0.444169       -12.0865
   3   1.0000      -0.406728       -11.0676
   4   1.0000      -0.234877        -6.3913
   5   0.0000       0.001275         0.0347
   6   0.0000       0.034938         0.9507
   7   0.0000       0.038492         1.0474
   8   0.0000       0.047537         1.2935
   9   0.0000       0.087658         2.3853

                 SPIN DOWN ORBITALS
  NO   OCC          E(Eh)            E(eV)
   0   1.0000     -10.165676      -276.6221
   1   1.0000      -0.653217       -17.7750
   2   1.0000      -0.434560       -11.8250
   3   1.0000      -0.397044       -10.8041
   4   0.0000      -0.077572        -2.1108
   5   0.0000       0.004299         0.1170
   6   0.0000       0.034571         0.9407
   7   0.0000       0.038063         1.0357
   8   0.0000       0.060743         1.6529

MULLIKEN ATOMIC CHARGES AND SPIN POPULATIONS
--------------------------------------------
   0 C :   -0.429768    1.101591
   1 H :    0.133299   -0.037509
   2 H :    0.145474   -0.032028
   3 H :    0.150995   -0.032054
Sum of atomic charges         :    0.0000000

LOEWDIN ATOMIC CHARGES AND SPIN POPULATIONS
-------------------------------------------
   0 C :   -0.136028    0.901096
   1 H :    0.067532    0.025363
   2 H :    0.023255    0.040198
   3 H :    0.045242    0.033343

  Mayer bond orders larger than 0.100000
B(  0-C ,  1-H ) :   0.9809 B(  0-C ,  2-H ) :   0.9797 B(  0-C ,  3-H ) :   0.9784

FINAL SINGLE POINT ENERGY       -39.823411837742

DIPOLE MOMENT
-------------
                                X             Y             Z
Electronic contribution:      0.01355      -0.14472      -0.01480
Nuclear contribution   :     -0.02708       0.14762       0.02272
                        -----------------------------------------
Total Dipole Moment    :     -0.01353       0.00290       0.00793
                        -----------------------------------------
Magnitude (a.u.)       :      0.01595
Magnitude (Debye)      :      0.04054

Rotational constants in cm-1:    11.033415     8.808329     4.898175
Rotational constants in MHz : 330773.455406 264067.059060 146843.578569

                             ****ORCA TERMINATED NORMALLY****
TOTAL RUN TIME: 0 days 0 hours 0 minutes 20 seconds 801 msec
