                         Program Version 5.0.3 -  RELEASE  -
|  1> !B3LYP EPR-III Autoaux
|  2> !PAL4
|  3>
|  4> * xyz 0 2
|  5>  C    -16.0847329052    -33.1374311829    -14.5375261028
|  6>  H    -16.3283935892    -34.0626987360    -14.1242824220
|  7>  H    -15.0007429546    -32.9768827898    -14.9284017829
|  8>  H    -16.7805602068    -32.2763647441    -14.7856159159
|  9> *
| 10>
| 11> %EPRNMR
| 12>         GTENSOR   TRUE
| 13>         NUCLEI    = ALL H {AISO, ADIP, AORB}
| 14>         NUCLEI    = ALL C {AISO, ADIP, AORB}
| 15> END
| 16>
| 17>
| 18>                          ****END OF INPUT****

CARTESIAN COORDINATES (ANGSTROEM)
---------------------------------
  C    -16.084733  -33.137431  -14.537526
  H    -16.328394  -34.062699  -14.124282
  H    -15.000743  -32.976883  -14.928402
  H    -16.780560  -32.276365  -14.785616

 Total Charge           Charge          ....    0
 Multiplicity           Mult            ....    2
 Number of Electrons    NEL             ....    9
 Basis Dimension        Dim             ....   73

ORBITAL ENERGIES
----------------
                 SPIN UP ORBITALS
  NO   OCC          E(Eh)            E(eV)
   0   1.0000     -10.194207      -277.3985
   1   1.0000      -0.680399       -18.5146
   2   1.0000      -0.435257       -11.8439
   3   1.0000      -0.396091       -10.7782
   4   1.0000      -0.235726        -6.4144
   5   0.0000      -0.000413        -0.0112
   6   0.0000       0.034830         0.9478
   7   0.0000       0.038275         1.0415
   8   0.0000       0.047265         1.2861
   9   0.0000       0.080917         2.2019

                 SPIN DOWN ORBITALS
  NO   OCC          E(Eh)            E(eV)
   0   1.0000     -10.179549      -276.9996
   1   1.0000      -0.640602       -17.4317
   2   1.0000      -0.425881       -11.5888
   3   1.0000      -0.387139       -10.5346
   4   0.0000      -0.077505        -2.1090
   5   0.0000       0.003072         0.0836
   6   0.0000       0.034547         0.9401
   7   0.0000       0.037999         1.0340
   8   0.0000       0.060574         1.6483

MULLIKEN ATOMIC CHARGES AND SPIN POPULATIONS
--------------------------------------------
   0 C :   -0.427624    1.108953
   1 H :    0.152975   -0.030956
   2 H :    0.130580   -0.040073
   3 H :    0.144068   -0.037925
Sum of atomic charges         :    0.0000000

LOEWDIN ATOMIC CHARGES AND SPIN POPULATIONS
-------------------------------------------
   0 C :   -0.174016    0.921307
   1 H :    0.025437    0.037799
   2 H :    0.078496    0.018458
   3 H :    0.070083    0.022437

  Mayer bond orders larger than 0.100000
B(  0-C ,  1-H ) :   0.9725 B(  0-C ,  2-H ) :   0.9750 B(  0-C ,  3-H ) :   0.9723

FINAL SINGLE POINT ENERGY       -39.820924227553

DIPOLE MOMENT
-------------
                                X             Y             Z
Electronic contribution:     -0.11649      -0.08664       0.13688
Nuclear contribution   :      0.10830       0.07221      -0.16917
                        -----------------------------------------
Total Dipole Moment    :     -0.00819      -0.01443      -0.03229
                        -----------------------------------------
Magnitude (a.u.)       :      0.03631
Magnitude (Debye)      :      0.09228

Rotational constants in cm-1:     9.302366     8.672545     4.499315
Rotational constants in MHz : 278877.910239 259996.358332 134886.055449

                             ****ORCA TERMINATED NORMALLY****
TOTAL RUN TIME: 0 days 0 hours 0 minutes 35 seconds 370 msec
