                         Program Version 5.0.3 -  RELEASE  -
|  1> !B3LYP EPR-III Autoaux
|  2> !PAL4
|  3>
|  4> * xyz 0 2
|  5>  C    -13.9887082050    -30.7796670715    -14.0181028425
|  6>  H    -13.6179407693    -29.8386980097    -14.2349502651
|  7>  H    -14.9678586269    -31.1906613378    -14.2230322588
|  8>  H    -13.2528854796    -31.3803604786    -13.4604601484
|  9> *
| 10>
| 11> %EPRNMR
| 12>         GTENSOR   TRUE
| 13>         NUCLEI    = ALL H {AISO, ADIP, AORB}
| 14>         NUCLEI    = ALL C {AISO, ADIP, AORB}
| 15> END
| 16>
| 17>
| 18>                          ****END OF INPUT****

CARTESIAN COORDINATES (ANGSTROEM)
---------------------------------
  C    -13.988708  -30.779667  -14.018103
  H    -13.617941  -29.838698  -14.234950
  H    -14.967859  -31.190661  -14.223032
  H    -13.252885  -31.380360  -13.460460

 Total Charge           Charge          ....    0
 Multiplicity           Mult            ....    2
 Number of Electrons    NEL             ....    9
 Basis Dimension        Dim             ....   73

ORBITAL ENERGIES
----------------
                 SPIN UP ORBITALS
  NO   OCC          E(Eh)            E(eV)
   0   1.0000     -10.181875      -277.0629
   1   1.0000      -0.690501       -18.7895
   2   1.0000      -0.440852       -11.9962
   3   1.0000      -0.407476       -11.0880
   4   1.0000      -0.234886        -6.3916
   5   0.0000       0.001167         0.0318
   6   0.0000       0.035062         0.9541
   7   0.0000       0.038369         1.0441
   8   0.0000       0.047517         1.2930
   9   0.0000       0.087878         2.3913

                 SPIN DOWN ORBITALS
  NO   OCC          E(Eh)            E(eV)
   0   1.0000     -10.167483      -276.6713
   1   1.0000      -0.651189       -17.7197
   2   1.0000      -0.431353       -11.7377
   3   1.0000      -0.397819       -10.8252
   4   0.0000      -0.077529        -2.1097
   5   0.0000       0.004230         0.1151
   6   0.0000       0.034704         0.9443
   7   0.0000       0.037943         1.0325
   8   0.0000       0.060739         1.6528

MULLIKEN ATOMIC CHARGES AND SPIN POPULATIONS
--------------------------------------------
   0 C :   -0.429006    1.102357
   1 H :    0.147546   -0.032149
   2 H :    0.149169   -0.033749
   3 H :    0.132292   -0.036459
Sum of atomic charges         :   -0.0000000

LOEWDIN ATOMIC CHARGES AND SPIN POPULATIONS
-------------------------------------------
   0 C :   -0.142350    0.903850
   1 H :    0.028193    0.038443
   2 H :    0.053892    0.030140
   3 H :    0.060265    0.027567

  Mayer bond orders larger than 0.100000
B(  0-C ,  1-H ) :   0.9789 B(  0-C ,  2-H ) :   0.9774 B(  0-C ,  3-H ) :   0.9803

FINAL SINGLE POINT ENERGY       -39.825046315194

DIPOLE MOMENT
-------------
                                X             Y             Z
Electronic contribution:     -0.09007       0.06000      -0.08643
Nuclear contribution   :      0.09551      -0.05300       0.10183
                        -----------------------------------------
Total Dipole Moment    :      0.00545       0.00700       0.01540
                        -----------------------------------------
Magnitude (a.u.)       :      0.01777
Magnitude (Debye)      :      0.04517

Rotational constants in cm-1:    10.720188     8.845192     4.848190
Rotational constants in MHz : 321383.154842 265172.193236 145345.076663

                             ****ORCA TERMINATED NORMALLY****
TOTAL RUN TIME: 0 days 0 hours 0 minutes 23 seconds 734 msec
