                         Program Version 5.0.3 -  RELEASE  -
|  1> !B3LYP EPR-III Autoaux
|  2> !PAL4
|  3>
|  4> * xyz 0 2
|  5>  C    -83.8699061185   -111.1554038437    -31.3121570350
|  6>  H    -84.3047403757   -112.1093539064    -31.4194182535
|  7>  H    -82.8220616313   -110.9956448365    -31.2598450045
|  8>  H    -84.5467379638   -110.3476244256    -31.2843194717
|  9> *
| 10>
| 11> %EPRNMR
| 12>         GTENSOR   TRUE
| 13>         NUCLEI    = ALL H {AISO, ADIP, AORB}
| 14>         NUCLEI    = ALL C {AISO, ADIP, AORB}
| 15> END
| 16>
| 17>
| 18>                          ****END OF INPUT****

CARTESIAN COORDINATES (ANGSTROEM)
---------------------------------
  C    -83.869906  -111.155404  -31.312157
  H    -84.304740  -112.109354  -31.419418
  H    -82.822062  -110.995645  -31.259845
  H    -84.546738  -110.347624  -31.284319

 Total Charge           Charge          ....    0
 Multiplicity           Mult            ....    2
 Number of Electrons    NEL             ....    9
 Basis Dimension        Dim             ....   73

ORBITAL ENERGIES
----------------
                 SPIN UP ORBITALS
  NO   OCC          E(Eh)            E(eV)
   0   1.0000     -10.176800      -276.9248
   1   1.0000      -0.694014       -18.8851
   2   1.0000      -0.434137       -11.8135
   3   1.0000      -0.421891       -11.4802
   4   1.0000      -0.234573        -6.3830
   5   0.0000       0.001720         0.0468
   6   0.0000       0.036143         0.9835
   7   0.0000       0.037536         1.0214
   8   0.0000       0.047621         1.2958
   9   0.0000       0.093324         2.5395

                 SPIN DOWN ORBITALS
  NO   OCC          E(Eh)            E(eV)
   0   1.0000     -10.162510      -276.5360
   1   1.0000      -0.654818       -17.8185
   2   1.0000      -0.424552       -11.5527
   3   1.0000      -0.412058       -11.2127
   4   0.0000      -0.077494        -2.1087
   5   0.0000       0.004652         0.1266
   6   0.0000       0.035729         0.9722
   7   0.0000       0.037085         1.0091
   8   0.0000       0.060820         1.6550

MULLIKEN ATOMIC CHARGES AND SPIN POPULATIONS
--------------------------------------------
   0 C :   -0.427597    1.098597
   1 H :    0.142033   -0.032892
   2 H :    0.145279   -0.032682
   3 H :    0.140285   -0.033023
Sum of atomic charges         :   -0.0000000

LOEWDIN ATOMIC CHARGES AND SPIN POPULATIONS
-------------------------------------------
   0 C :   -0.128365    0.896732
   1 H :    0.041346    0.034895
   2 H :    0.045804    0.033458
   3 H :    0.041214    0.034915

  Mayer bond orders larger than 0.100000
B(  0-C ,  1-H ) :   0.9808 B(  0-C ,  2-H ) :   0.9802 B(  0-C ,  3-H ) :   0.9810

FINAL SINGLE POINT ENERGY       -39.827431302569

DIPOLE MOMENT
-------------
                                X             Y             Z
Electronic contribution:      0.04073      -0.00847       0.01278
Nuclear contribution   :     -0.04783       0.01018      -0.02032
                        -----------------------------------------
Total Dipole Moment    :     -0.00710       0.00172      -0.00754
                        -----------------------------------------
Magnitude (a.u.)       :      0.01050
Magnitude (Debye)      :      0.02669

Rotational constants in cm-1:    10.529661     9.503263     4.995590
Rotational constants in MHz : 315671.292776 284900.661681 149764.007887

                             ****ORCA TERMINATED NORMALLY****
TOTAL RUN TIME: 0 days 0 hours 0 minutes 22 seconds 757 msec
