                         Program Version 5.0.3 -  RELEASE  -
|  1> !B3LYP EPR-III Autoaux
|  2> !PAL4
|  3>
|  4> * xyz 0 2
|  5>  C    -71.5114611832    -96.0018778136    -28.3374760552
|  6>  H    -70.4216435816    -96.0417479847    -28.3508652067
|  7>  H    -71.9058396167    -95.0553425380    -28.2709407227
|  8>  H    -71.9132572721    -97.0502326607    -28.4572324702
|  9> *
| 10>
| 11> %EPRNMR
| 12>         GTENSOR   TRUE
| 13>         NUCLEI    = ALL H {AISO, ADIP, AORB}
| 14>         NUCLEI    = ALL C {AISO, ADIP, AORB}
| 15> END
| 16>
| 17>
| 18>                          ****END OF INPUT****

CARTESIAN COORDINATES (ANGSTROEM)
---------------------------------
  C    -71.511461  -96.001878  -28.337476
  H    -70.421644  -96.041748  -28.350865
  H    -71.905840  -95.055343  -28.270941
  H    -71.913257  -97.050233  -28.457232

 Total Charge           Charge          ....    0
 Multiplicity           Mult            ....    2
 Number of Electrons    NEL             ....    9
 Basis Dimension        Dim             ....   73

ORBITAL ENERGIES
----------------
                 SPIN UP ORBITALS
  NO   OCC          E(Eh)            E(eV)
   0   1.0000     -10.185032      -277.1488
   1   1.0000      -0.689135       -18.7523
   2   1.0000      -0.446745       -12.1565
   3   1.0000      -0.395841       -10.7714
   4   1.0000      -0.235241        -6.4012
   5   0.0000       0.000613         0.0167
   6   0.0000       0.033664         0.9161
   7   0.0000       0.039322         1.0700
   8   0.0000       0.047426         1.2905
   9   0.0000       0.077923         2.1204

                 SPIN DOWN ORBITALS
  NO   OCC          E(Eh)            E(eV)
   0   1.0000     -10.170561      -276.7550
   1   1.0000      -0.649803       -17.6820
   2   1.0000      -0.437471       -11.9042
   3   1.0000      -0.386044       -10.5048
   4   0.0000      -0.077631        -2.1125
   5   0.0000       0.003789         0.1031
   6   0.0000       0.033378         0.9083
   7   0.0000       0.038906         1.0587
   8   0.0000       0.060658         1.6506

MULLIKEN ATOMIC CHARGES AND SPIN POPULATIONS
--------------------------------------------
   0 C :   -0.433625    1.105899
   1 H :    0.128861   -0.036211
   2 H :    0.156224   -0.030675
   3 H :    0.148540   -0.039013
Sum of atomic charges         :   -0.0000000

LOEWDIN ATOMIC CHARGES AND SPIN POPULATIONS
-------------------------------------------
   0 C :   -0.151864    0.908413
   1 H :    0.052580    0.029652
   2 H :    0.024306    0.039536
   3 H :    0.074978    0.022400

  Mayer bond orders larger than 0.100000
B(  0-C ,  1-H ) :   0.9799 B(  0-C ,  2-H ) :   0.9780 B(  0-C ,  3-H ) :   0.9764

FINAL SINGLE POINT ENERGY       -39.819857991529

DIPOLE MOMENT
-------------
                                X             Y             Z
Electronic contribution:     -0.18978       0.10452       0.03404
Nuclear contribution   :      0.22008      -0.10619      -0.04992
                        -----------------------------------------
Total Dipole Moment    :      0.03030      -0.00168      -0.01588
                        -----------------------------------------
Magnitude (a.u.)       :      0.03425
Magnitude (Debye)      :      0.08706

Rotational constants in cm-1:    11.152076     8.303984     4.761971
Rotational constants in MHz : 334330.820097 248947.182194 142760.309484

                             ****ORCA TERMINATED NORMALLY****
TOTAL RUN TIME: 0 days 0 hours 0 minutes 34 seconds 952 msec
