                         Program Version 5.0.3 -  RELEASE  -
|  1> !B3LYP EPR-III Autoaux
|  2> !PAL4
|  3>
|  4> * xyz 0 2
|  5>  C    -44.9205933077    -65.5157192034    -21.8903108946
|  6>  H    -45.4547805468    -64.5865696730    -21.8902157856
|  7>  H    -45.4317449036    -66.5646741494    -21.9619060394
|  8>  H    -43.8515206093    -65.6008410196    -21.8463722952
|  9> *
| 10>
| 11> %EPRNMR
| 12>         GTENSOR   TRUE
| 13>         NUCLEI    = ALL H {AISO, ADIP, AORB}
| 14>         NUCLEI    = ALL C {AISO, ADIP, AORB}
| 15> END
| 16>
| 17>
| 18>                          ****END OF INPUT****

CARTESIAN COORDINATES (ANGSTROEM)
---------------------------------
  C    -44.920593  -65.515719  -21.890311
  H    -45.454781  -64.586570  -21.890216
  H    -45.431745  -66.564674  -21.961906
  H    -43.851521  -65.600841  -21.846372

 Total Charge           Charge          ....    0
 Multiplicity           Mult            ....    2
 Number of Electrons    NEL             ....    9
 Basis Dimension        Dim             ....   73

ORBITAL ENERGIES
----------------
                 SPIN UP ORBITALS
  NO   OCC          E(Eh)            E(eV)
   0   1.0000     -10.191498      -277.3248
   1   1.0000      -0.682179       -18.5630
   2   1.0000      -0.435016       -11.8374
   3   1.0000      -0.400091       -10.8870
   4   1.0000      -0.235075        -6.3967
   5   0.0000      -0.000083        -0.0022
   6   0.0000       0.034998         0.9524
   7   0.0000       0.038162         1.0384
   8   0.0000       0.047340         1.2882
   9   0.0000       0.080447         2.1891

                 SPIN DOWN ORBITALS
  NO   OCC          E(Eh)            E(eV)
   0   1.0000     -10.176909      -276.9278
   1   1.0000      -0.642428       -17.4814
   2   1.0000      -0.425686       -11.5835
   3   1.0000      -0.390976       -10.6390
   4   0.0000      -0.077232        -2.1016
   5   0.0000       0.003334         0.0907
   6   0.0000       0.034688         0.9439
   7   0.0000       0.037854         1.0300
   8   0.0000       0.060653         1.6505

MULLIKEN ATOMIC CHARGES AND SPIN POPULATIONS
--------------------------------------------
   0 C :   -0.428135    1.108408
   1 H :    0.151197   -0.032857
   2 H :    0.133857   -0.040943
   3 H :    0.143081   -0.034609
Sum of atomic charges         :    0.0000000

LOEWDIN ATOMIC CHARGES AND SPIN POPULATIONS
-------------------------------------------
   0 C :   -0.168106    0.917896
   1 H :    0.043129    0.032430
   2 H :    0.083065    0.017257
   3 H :    0.041912    0.032417

  Mayer bond orders larger than 0.100000
B(  0-C ,  1-H ) :   0.9733 B(  0-C ,  2-H ) :   0.9750 B(  0-C ,  3-H ) :   0.9746

FINAL SINGLE POINT ENERGY       -39.823070478461

DIPOLE MOMENT
-------------
                                X             Y             Z
Electronic contribution:     -0.00233       0.15614       0.01562
Nuclear contribution   :      0.01779      -0.15359      -0.02066
                        -----------------------------------------
Total Dipole Moment    :      0.01545       0.00255      -0.00503
                        -----------------------------------------
Magnitude (a.u.)       :      0.01645
Magnitude (Debye)      :      0.04182

Rotational constants in cm-1:     9.919578     8.451743     4.563806
Rotational constants in MHz : 297381.457595 253376.868331 136819.473085

                             ****ORCA TERMINATED NORMALLY****
TOTAL RUN TIME: 0 days 0 hours 0 minutes 21 seconds 633 msec
