                         Program Version 5.0.3 -  RELEASE  -
|  1> !B3LYP EPR-III Autoaux
|  2> !PAL4
|  3>
|  4> * xyz 0 2
|  5>  C    -83.3890718480   -110.5576515015    -31.2011859262
|  6>  H    -84.1738749239   -111.2999291706    -31.2983026918
|  7>  H    -82.3585847284   -110.9297752528    -31.1924147379
|  8>  H    -83.7627044330   -109.5614711098    -31.1393170777
|  9> *
| 10>
| 11> %EPRNMR
| 12>         GTENSOR   TRUE
| 13>         NUCLEI    = ALL H {AISO, ADIP, AORB}
| 14>         NUCLEI    = ALL C {AISO, ADIP, AORB}
| 15> END
| 16>
| 17>
| 18>                          ****END OF INPUT****

CARTESIAN COORDINATES (ANGSTROEM)
---------------------------------
  C    -83.389072  -110.557652  -31.201186
  H    -84.173875  -111.299929  -31.298303
  H    -82.358585  -110.929775  -31.192415
  H    -83.762704  -109.561471  -31.139317

 Total Charge           Charge          ....    0
 Multiplicity           Mult            ....    2
 Number of Electrons    NEL             ....    9
 Basis Dimension        Dim             ....   73

ORBITAL ENERGIES
----------------
                 SPIN UP ORBITALS
  NO   OCC          E(Eh)            E(eV)
   0   1.0000     -10.184758      -277.1414
   1   1.0000      -0.687532       -18.7087
   2   1.0000      -0.436122       -11.8675
   3   1.0000      -0.407836       -11.0978
   4   1.0000      -0.234745        -6.3877
   5   0.0000       0.000881         0.0240
   6   0.0000       0.035042         0.9535
   7   0.0000       0.038339         1.0433
   8   0.0000       0.047480         1.2920
   9   0.0000       0.084280         2.2934

                 SPIN DOWN ORBITALS
  NO   OCC          E(Eh)            E(eV)
   0   1.0000     -10.170317      -276.7484
   1   1.0000      -0.648124       -17.6363
   2   1.0000      -0.426899       -11.6165
   3   1.0000      -0.398105       -10.8330
   4   0.0000      -0.077329        -2.1042
   5   0.0000       0.004035         0.1098
   6   0.0000       0.034701         0.9443
   7   0.0000       0.037918         1.0318
   8   0.0000       0.060742         1.6529

MULLIKEN ATOMIC CHARGES AND SPIN POPULATIONS
--------------------------------------------
   0 C :   -0.429345    1.104295
   1 H :    0.133780   -0.035388
   2 H :    0.148090   -0.035141
   3 H :    0.147475   -0.033765
Sum of atomic charges         :    0.0000000

LOEWDIN ATOMIC CHARGES AND SPIN POPULATIONS
-------------------------------------------
   0 C :   -0.152515    0.908377
   1 H :    0.050237    0.030503
   2 H :    0.058726    0.028009
   3 H :    0.043552    0.033111

  Mayer bond orders larger than 0.100000
B(  0-C ,  1-H ) :   0.9789 B(  0-C ,  2-H ) :   0.9762 B(  0-C ,  3-H ) :   0.9773

FINAL SINGLE POINT ENERGY       -39.826331892584

DIPOLE MOMENT
-------------
                                X             Y             Z
Electronic contribution:      0.08219       0.08013       0.01530
Nuclear contribution   :     -0.09589      -0.08860      -0.01984
                        -----------------------------------------
Total Dipole Moment    :     -0.01370      -0.00847      -0.00455
                        -----------------------------------------
Magnitude (a.u.)       :      0.01674
Magnitude (Debye)      :      0.04255

Rotational constants in cm-1:    10.619818     8.639425     4.763995
Rotational constants in MHz : 318374.127657 259003.442472 142820.972719

                             ****ORCA TERMINATED NORMALLY****
TOTAL RUN TIME: 0 days 0 hours 0 minutes 21 seconds 109 msec
