                         Program Version 5.0.3 -  RELEASE  -
|  1> !B3LYP EPR-III Autoaux
|  2> !PAL4
|  3>
|  4> * xyz 0 2
|  5>  C    -78.4662543811   -104.4958314972    -30.0020033993
|  6>  H    -77.4377522734   -104.8794420100    -30.0099590628
|  7>  H    -78.7009946749   -103.4260517582    -29.9106236375
|  8>  H    -79.2480641463   -105.3171706308    -30.0976705584
|  9> *
| 10>
| 11> %EPRNMR
| 12>         GTENSOR   TRUE
| 13>         NUCLEI    = ALL H {AISO, ADIP, AORB}
| 14>         NUCLEI    = ALL C {AISO, ADIP, AORB}
| 15> END
| 16>
| 17>
| 18>                          ****END OF INPUT****

CARTESIAN COORDINATES (ANGSTROEM)
---------------------------------
  C    -78.466254  -104.495831  -30.002003
  H    -77.437752  -104.879442  -30.009959
  H    -78.700995  -103.426052  -29.910624
  H    -79.248064  -105.317171  -30.097671

 Total Charge           Charge          ....    0
 Multiplicity           Mult            ....    2
 Number of Electrons    NEL             ....    9
 Basis Dimension        Dim             ....   73

ORBITAL ENERGIES
----------------
                 SPIN UP ORBITALS
  NO   OCC          E(Eh)            E(eV)
   0   1.0000     -10.193574      -277.3813
   1   1.0000      -0.679384       -18.4870
   2   1.0000      -0.427300       -11.6274
   3   1.0000      -0.404728       -11.0132
   4   1.0000      -0.234854        -6.3907
   5   0.0000      -0.000211        -0.0058
   6   0.0000       0.035400         0.9633
   7   0.0000       0.037855         1.0301
   8   0.0000       0.047331         1.2880
   9   0.0000       0.083026         2.2592

                 SPIN DOWN ORBITALS
  NO   OCC          E(Eh)            E(eV)
   0   1.0000     -10.178956      -276.9835
   1   1.0000      -0.639562       -17.4034
   2   1.0000      -0.418237       -11.3808
   3   1.0000      -0.395513       -10.7624
   4   0.0000      -0.077022        -2.0959
   5   0.0000       0.003264         0.0888
   6   0.0000       0.035101         0.9552
   7   0.0000       0.037518         1.0209
   8   0.0000       0.060680         1.6512

MULLIKEN ATOMIC CHARGES AND SPIN POPULATIONS
--------------------------------------------
   0 C :   -0.427909    1.109401
   1 H :    0.140486   -0.035956
   2 H :    0.148980   -0.034847
   3 H :    0.138443   -0.038598
Sum of atomic charges         :    0.0000000

LOEWDIN ATOMIC CHARGES AND SPIN POPULATIONS
-------------------------------------------
   0 C :   -0.177069    0.921333
   1 H :    0.052092    0.028555
   2 H :    0.054839    0.028039
   3 H :    0.070137    0.022072

  Mayer bond orders larger than 0.100000
B(  0-C ,  1-H ) :   0.9737 B(  0-C ,  2-H ) :   0.9718 B(  0-C ,  3-H ) :   0.9735

FINAL SINGLE POINT ENERGY       -39.825391445876

DIPOLE MOMENT
-------------
                                X             Y             Z
Electronic contribution:     -0.00072       0.09665       0.00888
Nuclear contribution   :      0.00896      -0.10131      -0.00918
                        -----------------------------------------
Total Dipole Moment    :      0.00824      -0.00465      -0.00030
                        -----------------------------------------
Magnitude (a.u.)       :      0.00947
Magnitude (Debye)      :      0.02406

Rotational constants in cm-1:     9.693164     8.440736     4.511850
Rotational constants in MHz : 290593.744272 253046.914058 135261.867584

                             ****ORCA TERMINATED NORMALLY****
TOTAL RUN TIME: 0 days 0 hours 0 minutes 18 seconds 412 msec
