                         Program Version 5.0.3 -  RELEASE  -
|  1> !B3LYP EPR-III Autoaux
|  2> !PAL4
|  3>
|  4> * xyz 0 2
|  5>  C    -60.9335694736    -83.4239259055    -25.9065572951
|  6>  H    -61.9666786590    -83.7396931243    -25.9025417049
|  7>  H    -60.0675934942    -84.0680332083    -25.9942864406
|  8>  H    -60.6805800431    -82.3783341487    -25.8211117555
|  9> *
| 10>
| 11> %EPRNMR
| 12>         GTENSOR   TRUE
| 13>         NUCLEI    = ALL H {AISO, ADIP, AORB}
| 14>         NUCLEI    = ALL C {AISO, ADIP, AORB}
| 15> END
| 16>
| 17>
| 18>                          ****END OF INPUT****

CARTESIAN COORDINATES (ANGSTROEM)
---------------------------------
  C    -60.933569  -83.423926  -25.906557
  H    -61.966679  -83.739693  -25.902542
  H    -60.067593  -84.068033  -25.994286
  H    -60.680580  -82.378334  -25.821112

 Total Charge           Charge          ....    0
 Multiplicity           Mult            ....    2
 Number of Electrons    NEL             ....    9
 Basis Dimension        Dim             ....   73

ORBITAL ENERGIES
----------------
                 SPIN UP ORBITALS
  NO   OCC          E(Eh)            E(eV)
   0   1.0000     -10.184353      -277.1303
   1   1.0000      -0.687478       -18.7072
   2   1.0000      -0.432972       -11.7818
   3   1.0000      -0.412054       -11.2126
   4   1.0000      -0.234669        -6.3857
   5   0.0000       0.000990         0.0269
   6   0.0000       0.035544         0.9672
   7   0.0000       0.037941         1.0324
   8   0.0000       0.047496         1.2924
   9   0.0000       0.087633         2.3846

                 SPIN DOWN ORBITALS
  NO   OCC          E(Eh)            E(eV)
   0   1.0000     -10.169923      -276.7377
   1   1.0000      -0.648044       -17.6342
   2   1.0000      -0.423685       -11.5290
   3   1.0000      -0.402410       -10.9501
   4   0.0000      -0.077288        -2.1031
   5   0.0000       0.004127         0.1123
   6   0.0000       0.035185         0.9574
   7   0.0000       0.037525         1.0211
   8   0.0000       0.060759         1.6533

MULLIKEN ATOMIC CHARGES AND SPIN POPULATIONS
--------------------------------------------
   0 C :   -0.427859    1.103516
   1 H :    0.147734   -0.033742
   2 H :    0.142450   -0.034909
   3 H :    0.137675   -0.034865
Sum of atomic charges         :   -0.0000000

LOEWDIN ATOMIC CHARGES AND SPIN POPULATIONS
-------------------------------------------
   0 C :   -0.150955    0.907763
   1 H :    0.051116    0.030614
   2 H :    0.051383    0.030392
   3 H :    0.048456    0.031231

  Mayer bond orders larger than 0.100000
B(  0-C ,  1-H ) :   0.9765 B(  0-C ,  2-H ) :   0.9776 B(  0-C ,  3-H ) :   0.9783

FINAL SINGLE POINT ENERGY       -39.827731987432

DIPOLE MOMENT
-------------
                                X             Y             Z
Electronic contribution:     -0.05773      -0.05544      -0.00165
Nuclear contribution   :      0.06435       0.06424       0.00130
                        -----------------------------------------
Total Dipole Moment    :      0.00662       0.00880      -0.00035
                        -----------------------------------------
Magnitude (a.u.)       :      0.01102
Magnitude (Debye)      :      0.02801

Rotational constants in cm-1:    10.338621     8.869730     4.774013
Rotational constants in MHz : 309944.074547 265907.824616 143121.320691

                             ****ORCA TERMINATED NORMALLY****
TOTAL RUN TIME: 0 days 0 hours 0 minutes 22 seconds 484 msec
