                         Program Version 5.0.3 -  RELEASE  -
|  1> !B3LYP EPR-III Autoaux
|  2> !PAL4
|  3>
|  4> * xyz 0 2
|  5>  C      0.5715956964    -14.2358340287    -10.2248729786
|  6>  H      0.4638927325    -15.2933534437    -10.0611564019
|  7>  H      1.4271070201    -13.6155800071     -9.7522343097
|  8>  H     -0.0534799791    -13.8813044160    -11.0785982219
|  9> *
| 10>
| 11> %EPRNMR
| 12>         GTENSOR   TRUE
| 13>         NUCLEI    = ALL H {AISO, ADIP, AORB}
| 14>         NUCLEI    = ALL C {AISO, ADIP, AORB}
| 15> END
| 16>
| 17>
| 18>                          ****END OF INPUT****

CARTESIAN COORDINATES (ANGSTROEM)
---------------------------------
  C      0.571596  -14.235834  -10.224873
  H      0.463893  -15.293353  -10.061156
  H      1.427107  -13.615580   -9.752234
  H     -0.053480  -13.881304  -11.078598

 Total Charge           Charge          ....    0
 Multiplicity           Mult            ....    2
 Number of Electrons    NEL             ....    9
 Basis Dimension        Dim             ....   73

ORBITAL ENERGIES
----------------
                 SPIN UP ORBITALS
  NO   OCC          E(Eh)            E(eV)
   0   1.0000     -10.194997      -277.4200
   1   1.0000      -0.679294       -18.4845
   2   1.0000      -0.419954       -11.4275
   3   1.0000      -0.408196       -11.1076
   4   1.0000      -0.236578        -6.4376
   5   0.0000      -0.000664        -0.0181
   6   0.0000       0.035621         0.9693
   7   0.0000       0.037805         1.0287
   8   0.0000       0.047248         1.2857
   9   0.0000       0.079385         2.1602

                 SPIN DOWN ORBITALS
  NO   OCC          E(Eh)            E(eV)
   0   1.0000     -10.180310      -277.0203
   1   1.0000      -0.639832       -17.4107
   2   1.0000      -0.410961       -11.1828
   3   1.0000      -0.398625       -10.8471
   4   0.0000      -0.077943        -2.1209
   5   0.0000       0.002826         0.0769
   6   0.0000       0.035420         0.9638
   7   0.0000       0.037457         1.0192
   8   0.0000       0.060521         1.6469

MULLIKEN ATOMIC CHARGES AND SPIN POPULATIONS
--------------------------------------------
   0 C :   -0.425662    1.106531
   1 H :    0.141474   -0.033429
   2 H :    0.145480   -0.037234
   3 H :    0.138709   -0.035868
Sum of atomic charges         :    0.0000000

LOEWDIN ATOMIC CHARGES AND SPIN POPULATIONS
-------------------------------------------
   0 C :   -0.180436    0.922527
   1 H :    0.040670    0.032397
   2 H :    0.079625    0.019236
   3 H :    0.060141    0.025840

  Mayer bond orders larger than 0.100000
B(  0-C ,  1-H ) :   0.9733 B(  0-C ,  2-H ) :   0.9703 B(  0-C ,  3-H ) :   0.9736

FINAL SINGLE POINT ENERGY       -39.822802595096

DIPOLE MOMENT
-------------
                                X             Y             Z
Electronic contribution:     -0.05353       0.03093       0.11213
Nuclear contribution   :      0.09199      -0.06201      -0.16291
                        -----------------------------------------
Total Dipole Moment    :      0.03846      -0.03108      -0.05078
                        -----------------------------------------
Magnitude (a.u.)       :      0.07088
Magnitude (Debye)      :      0.18016

Rotational constants in cm-1:    10.079808     7.980772     4.495558
Rotational constants in MHz : 302185.027679 239257.532666 134773.433471

                             ****ORCA TERMINATED NORMALLY****
TOTAL RUN TIME: 0 days 0 hours 0 minutes 21 seconds 170 msec
