                         Program Version 5.0.3 -  RELEASE  -
|  1> !B3LYP EPR-III Autoaux
|  2> !PAL4
|  3>
|  4> * xyz 0 2
|  5>  C    -12.3834357342    -28.9705166250    -13.5972171071
|  6>  H    -11.9705319760    -29.8114226769    -14.2394663944
|  7>  H    -11.8215959929    -28.4001904634    -12.8771203187
|  8>  H    -13.4803571509    -28.9492508746    -13.7189445783
|  9> *
| 10>
| 11> %EPRNMR
| 12>         GTENSOR   TRUE
| 13>         NUCLEI    = ALL H {AISO, ADIP, AORB}
| 14>         NUCLEI    = ALL C {AISO, ADIP, AORB}
| 15> END
| 16>
| 17>
| 18>                          ****END OF INPUT****

CARTESIAN COORDINATES (ANGSTROEM)
---------------------------------
  C    -12.383436  -28.970517  -13.597217
  H    -11.970532  -29.811423  -14.239466
  H    -11.821596  -28.400190  -12.877120
  H    -13.480357  -28.949251  -13.718945

 Total Charge           Charge          ....    0
 Multiplicity           Mult            ....    2
 Number of Electrons    NEL             ....    9
 Basis Dimension        Dim             ....   73

ORBITAL ENERGIES
----------------
                 SPIN UP ORBITALS
  NO   OCC          E(Eh)            E(eV)
   0   1.0000     -10.192057      -277.3400
   1   1.0000      -0.681567       -18.5464
   2   1.0000      -0.436735       -11.8842
   3   1.0000      -0.397059       -10.8045
   4   1.0000      -0.235689        -6.4134
   5   0.0000      -0.000020        -0.0005
   6   0.0000       0.034565         0.9406
   7   0.0000       0.038696         1.0530
   8   0.0000       0.047318         1.2876
   9   0.0000       0.082743         2.2515

                 SPIN DOWN ORBITALS
  NO   OCC          E(Eh)            E(eV)
   0   1.0000     -10.177453      -276.9426
   1   1.0000      -0.641952       -17.4684
   2   1.0000      -0.427580       -11.6350
   3   1.0000      -0.387696       -10.5498
   4   0.0000      -0.077607        -2.1118
   5   0.0000       0.003349         0.0911
   6   0.0000       0.034273         0.9326
   7   0.0000       0.038346         1.0434
   8   0.0000       0.060603         1.6491

MULLIKEN ATOMIC CHARGES AND SPIN POPULATIONS
--------------------------------------------
   0 C :   -0.428647    1.107395
   1 H :    0.136086   -0.038586
   2 H :    0.153253   -0.032300
   3 H :    0.139308   -0.036510
Sum of atomic charges         :    0.0000000

LOEWDIN ATOMIC CHARGES AND SPIN POPULATIONS
-------------------------------------------
   0 C :   -0.171951    0.918531
   1 H :    0.069974    0.022421
   2 H :    0.045830    0.031600
   3 H :    0.056147    0.027448

  Mayer bond orders larger than 0.100000
B(  0-C ,  1-H ) :   0.9753 B(  0-C ,  2-H ) :   0.9726 B(  0-C ,  3-H ) :   0.9751

FINAL SINGLE POINT ENERGY       -39.823869816332

DIPOLE MOMENT
-------------
                                X             Y             Z
Electronic contribution:      0.07538       0.15402       0.05837
Nuclear contribution   :     -0.09157      -0.18686      -0.03289
                        -----------------------------------------
Total Dipole Moment    :     -0.01619      -0.03284       0.02549
                        -----------------------------------------
Magnitude (a.u.)       :      0.04461
Magnitude (Debye)      :      0.11339

Rotational constants in cm-1:    10.132491     8.284793     4.573828
Rotational constants in MHz : 303764.446382 248371.842150 137119.906874

                             ****ORCA TERMINATED NORMALLY****
TOTAL RUN TIME: 0 days 0 hours 0 minutes 19 seconds 102 msec
