                         Program Version 5.0.3 -  RELEASE  -
|  1> !B3LYP EPR-III Autoaux
|  2> !PAL4
|  3>
|  4> * xyz 0 2
|  5>  C    -51.0180011479    -72.3260672847    -23.4161520879
|  6>  H    -50.5969250416    -71.3578182386    -23.3818499204
|  7>  H    -52.0143806568    -72.4285583703    -23.3442816128
|  8>  H    -50.2596025283    -73.1025601720    -23.4593061628
|  9> *
| 10>
| 11> %EPRNMR
| 12>         GTENSOR   TRUE
| 13>         NUCLEI    = ALL H {AISO, ADIP, AORB}
| 14>         NUCLEI    = ALL C {AISO, ADIP, AORB}
| 15> END
| 16>
| 17>
| 18>                          ****END OF INPUT****

CARTESIAN COORDINATES (ANGSTROEM)
---------------------------------
  C    -51.018001  -72.326067  -23.416152
  H    -50.596925  -71.357818  -23.381850
  H    -52.014381  -72.428558  -23.344282
  H    -50.259603  -73.102560  -23.459306

 Total Charge           Charge          ....    0
 Multiplicity           Mult            ....    2
 Number of Electrons    NEL             ....    9
 Basis Dimension        Dim             ....   73

ORBITAL ENERGIES
----------------
                 SPIN UP ORBITALS
  NO   OCC          E(Eh)            E(eV)
   0   1.0000     -10.174577      -276.8643
   1   1.0000      -0.697075       -18.9684
   2   1.0000      -0.447063       -12.1652
   3   1.0000      -0.411987       -11.2107
   4   1.0000      -0.234942        -6.3931
   5   0.0000       0.001798         0.0489
   6   0.0000       0.035132         0.9560
   7   0.0000       0.038433         1.0458
   8   0.0000       0.047626         1.2960
   9   0.0000       0.089044         2.4230

                 SPIN DOWN ORBITALS
  NO   OCC          E(Eh)            E(eV)
   0   1.0000     -10.160310      -276.4761
   1   1.0000      -0.657978       -17.9045
   2   1.0000      -0.437261       -11.8985
   3   1.0000      -0.402164       -10.9434
   4   0.0000      -0.077786        -2.1167
   5   0.0000       0.004675         0.1272
   6   0.0000       0.034735         0.9452
   7   0.0000       0.037971         1.0332
   8   0.0000       0.060784         1.6540

MULLIKEN ATOMIC CHARGES AND SPIN POPULATIONS
--------------------------------------------
   0 C :   -0.429856    1.097673
   1 H :    0.135917   -0.033588
   2 H :    0.152466   -0.028873
   3 H :    0.141472   -0.035213
Sum of atomic charges         :   -0.0000000

LOEWDIN ATOMIC CHARGES AND SPIN POPULATIONS
-------------------------------------------
   0 C :   -0.119714    0.893048
   1 H :    0.043605    0.034537
   2 H :    0.016348    0.043242
   3 H :    0.059761    0.029174

  Mayer bond orders larger than 0.100000
B(  0-C ,  1-H ) :   0.9825 B(  0-C ,  2-H ) :   0.9816 B(  0-C ,  3-H ) :   0.9816

FINAL SINGLE POINT ENERGY       -39.822606998444

DIPOLE MOMENT
-------------
                                X             Y             Z
Electronic contribution:     -0.12817      -0.05385      -0.02690
Nuclear contribution   :      0.13723       0.06690       0.04723
                        -----------------------------------------
Total Dipole Moment    :      0.00906       0.01305       0.02033
                        -----------------------------------------
Magnitude (a.u.)       :      0.02580
Magnitude (Debye)      :      0.06558

Rotational constants in cm-1:    10.980273     9.397817     5.067713
Rotational constants in MHz : 329180.317027 281739.473098 151926.213854

                             ****ORCA TERMINATED NORMALLY****
TOTAL RUN TIME: 0 days 0 hours 0 minutes 19 seconds 780 msec
