                         Program Version 5.0.3 -  RELEASE  -
|  1> !B3LYP EPR-III Autoaux
|  2> !PAL4
|  3>
|  4> * xyz 0 2
|  5>  C      8.7967735732     -4.8872179785     -8.1160116441
|  6>  H      7.8306707094     -5.4060560805     -8.1226157800
|  7>  H      9.4797443543     -4.8545513672     -8.9786694075
|  8>  H      9.1262869006     -4.4899286522     -7.1474225721
|  9> *
| 10>
| 11> %EPRNMR
| 12>         GTENSOR   TRUE
| 13>         NUCLEI    = ALL H {AISO, ADIP, AORB}
| 14>         NUCLEI    = ALL C {AISO, ADIP, AORB}
| 15> END
| 16>
| 17>
| 18>                          ****END OF INPUT****

CARTESIAN COORDINATES (ANGSTROEM)
---------------------------------
  C      8.796774   -4.887218   -8.116012
  H      7.830671   -5.406056   -8.122616
  H      9.479744   -4.854551   -8.978669
  H      9.126287   -4.489929   -7.147423

 Total Charge           Charge          ....    0
 Multiplicity           Mult            ....    2
 Number of Electrons    NEL             ....    9
 Basis Dimension        Dim             ....   73

ORBITAL ENERGIES
----------------
                 SPIN UP ORBITALS
  NO   OCC          E(Eh)            E(eV)
   0   1.0000     -10.189685      -277.2754
   1   1.0000      -0.682651       -18.5759
   2   1.0000      -0.424552       -11.5526
   3   1.0000      -0.412971       -11.2375
   4   1.0000      -0.235112        -6.3977
   5   0.0000       0.000387         0.0105
   6   0.0000       0.036040         0.9807
   7   0.0000       0.037451         1.0191
   8   0.0000       0.047401         1.2898
   9   0.0000       0.086886         2.3643

                 SPIN DOWN ORBITALS
  NO   OCC          E(Eh)            E(eV)
   0   1.0000     -10.175145      -276.8798
   1   1.0000      -0.643058       -17.4985
   2   1.0000      -0.415369       -11.3028
   3   1.0000      -0.403559       -10.9814
   4   0.0000      -0.077328        -2.1042
   5   0.0000       0.003683         0.1002
   6   0.0000       0.035707         0.9716
   7   0.0000       0.037083         1.0091
   8   0.0000       0.060700         1.6517

MULLIKEN ATOMIC CHARGES AND SPIN POPULATIONS
--------------------------------------------
   0 C :   -0.426184    1.105583
   1 H :    0.142490   -0.035146
   2 H :    0.144879   -0.035002
   3 H :    0.138815   -0.035435
Sum of atomic charges         :    0.0000000

LOEWDIN ATOMIC CHARGES AND SPIN POPULATIONS
-------------------------------------------
   0 C :   -0.165983    0.915372
   1 H :    0.054635    0.028465
   2 H :    0.057153    0.027701
   3 H :    0.054194    0.028461

  Mayer bond orders larger than 0.100000
B(  0-C ,  1-H ) :   0.9749 B(  0-C ,  2-H ) :   0.9742 B(  0-C ,  3-H ) :   0.9756

FINAL SINGLE POINT ENERGY       -39.827738251909

DIPOLE MOMENT
-------------
                                X             Y             Z
Electronic contribution:     -0.02108       0.03854      -0.05984
Nuclear contribution   :      0.03476      -0.06662       0.07444
                        -----------------------------------------
Total Dipole Moment    :      0.01369      -0.02807       0.01461
                        -----------------------------------------
Magnitude (a.u.)       :      0.03448
Magnitude (Debye)      :      0.08763

Rotational constants in cm-1:     9.678787     8.831682     4.628084
Rotational constants in MHz : 290162.739057 264767.168024 138746.475765

                             ****ORCA TERMINATED NORMALLY****
TOTAL RUN TIME: 0 days 0 hours 0 minutes 20 seconds 957 msec
