                         Program Version 5.0.3 -  RELEASE  -
|  1> !B3LYP EPR-III Autoaux
|  2> !PAL4
|  3>
|  4> * xyz 0 2
|  5>  C    -92.5321816042   -121.9364957180    -33.1530703875
|  6>  H    -92.0343242836   -122.8817831496    -33.2040300921
|  7>  H    -91.9291206381   -121.0680392401    -33.0483004616
|  8>  H    -93.6154261099   -122.0064523331    -33.2170430636
|  9> *
| 10>
| 11> %EPRNMR
| 12>         GTENSOR   TRUE
| 13>         NUCLEI    = ALL H {AISO, ADIP, AORB}
| 14>         NUCLEI    = ALL C {AISO, ADIP, AORB}
| 15> END
| 16>
| 17>
| 18>                          ****END OF INPUT****

CARTESIAN COORDINATES (ANGSTROEM)
---------------------------------
  C    -92.532182  -121.936496  -33.153070
  H    -92.034324  -122.881783  -33.204030
  H    -91.929121  -121.068039  -33.048300
  H    -93.615426  -122.006452  -33.217043

 Total Charge           Charge          ....    0
 Multiplicity           Mult            ....    2
 Number of Electrons    NEL             ....    9
 Basis Dimension        Dim             ....   73

ORBITAL ENERGIES
----------------
                 SPIN UP ORBITALS
  NO   OCC          E(Eh)            E(eV)
   0   1.0000     -10.182040      -277.0674
   1   1.0000      -0.689728       -18.7685
   2   1.0000      -0.436385       -11.8746
   3   1.0000      -0.411766       -11.2047
   4   1.0000      -0.234677        -6.3859
   5   0.0000       0.001197         0.0326
   6   0.0000       0.035338         0.9616
   7   0.0000       0.038150         1.0381
   8   0.0000       0.047530         1.2934
   9   0.0000       0.086627         2.3572

                 SPIN DOWN ORBITALS
  NO   OCC          E(Eh)            E(eV)
   0   1.0000     -10.167652      -276.6759
   1   1.0000      -0.650388       -17.6980
   2   1.0000      -0.427042       -11.6204
   3   1.0000      -0.402004       -10.9391
   4   0.0000      -0.077385        -2.1057
   5   0.0000       0.004267         0.1161
   6   0.0000       0.034970         0.9516
   7   0.0000       0.037719         1.0264
   8   0.0000       0.060770         1.6536

MULLIKEN ATOMIC CHARGES AND SPIN POPULATIONS
--------------------------------------------
   0 C :   -0.428669    1.102310
   1 H :    0.136147   -0.034356
   2 H :    0.148307   -0.032838
   3 H :    0.144216   -0.035116
Sum of atomic charges         :    0.0000000

LOEWDIN ATOMIC CHARGES AND SPIN POPULATIONS
-------------------------------------------
   0 C :   -0.144225    0.904366
   1 H :    0.044908    0.032785
   2 H :    0.043677    0.033472
   3 H :    0.055640    0.029377

  Mayer bond orders larger than 0.100000
B(  0-C ,  1-H ) :   0.9795 B(  0-C ,  2-H ) :   0.9780 B(  0-C ,  3-H ) :   0.9783

FINAL SINGLE POINT ENERGY       -39.827023722886

DIPOLE MOMENT
-------------
                                X             Y             Z
Electronic contribution:     -0.00699       0.09594       0.00711
Nuclear contribution   :      0.01325      -0.11001      -0.00762
                        -----------------------------------------
Total Dipole Moment    :      0.00626      -0.01407      -0.00051
                        -----------------------------------------
Magnitude (a.u.)       :      0.01541
Magnitude (Debye)      :      0.03917

Rotational constants in cm-1:    10.615314     8.903291     4.842111
Rotational constants in MHz : 318239.121553 266913.961915 145162.831357

                             ****ORCA TERMINATED NORMALLY****
TOTAL RUN TIME: 0 days 0 hours 0 minutes 27 seconds 281 msec
