                         Program Version 5.0.3 -  RELEASE  -
|  1> !B3LYP EPR-III Autoaux
|  2> !PAL4
|  3>
|  4> * xyz 0 2
|  5>  C    -64.7375942564    -87.8683459592    -26.7912246669
|  6>  H    -63.7641453586    -87.4282404854    -26.7815845897
|  7>  H    -65.6534730882    -87.4111502099    -26.7560681043
|  8>  H    -64.8648725671    -88.9893572778    -26.8896991231
|  9> *
| 10>
| 11> %EPRNMR
| 12>         GTENSOR   TRUE
| 13>         NUCLEI    = ALL H {AISO, ADIP, AORB}
| 14>         NUCLEI    = ALL C {AISO, ADIP, AORB}
| 15> END
| 16>
| 17>
| 18>                          ****END OF INPUT****

CARTESIAN COORDINATES (ANGSTROEM)
---------------------------------
  C    -64.737594  -87.868346  -26.791225
  H    -63.764145  -87.428240  -26.781585
  H    -65.653473  -87.411150  -26.756068
  H    -64.864873  -88.989357  -26.889699

 Total Charge           Charge          ....    0
 Multiplicity           Mult            ....    2
 Number of Electrons    NEL             ....    9
 Basis Dimension        Dim             ....   73

ORBITAL ENERGIES
----------------
                 SPIN UP ORBITALS
  NO   OCC          E(Eh)            E(eV)
   0   1.0000     -10.182691      -277.0851
   1   1.0000      -0.690414       -18.7871
   2   1.0000      -0.444671       -12.1001
   3   1.0000      -0.402852       -10.9622
   4   1.0000      -0.235066        -6.3965
   5   0.0000       0.001003         0.0273
   6   0.0000       0.034812         0.9473
   7   0.0000       0.038529         1.0484
   8   0.0000       0.047482         1.2920
   9   0.0000       0.086484         2.3534

                 SPIN DOWN ORBITALS
  NO   OCC          E(Eh)            E(eV)
   0   1.0000     -10.168274      -276.6928
   1   1.0000      -0.651044       -17.7158
   2   1.0000      -0.435056       -11.8385
   3   1.0000      -0.393365       -10.7040
   4   0.0000      -0.077591        -2.1114
   5   0.0000       0.004098         0.1115
   6   0.0000       0.034455         0.9376
   7   0.0000       0.038132         1.0376
   8   0.0000       0.060703         1.6518

MULLIKEN ATOMIC CHARGES AND SPIN POPULATIONS
--------------------------------------------
   0 C :   -0.429338    1.103086
   1 H :    0.150966   -0.032710
   2 H :    0.148511   -0.031784
   3 H :    0.129860   -0.038592
Sum of atomic charges         :    0.0000000

LOEWDIN ATOMIC CHARGES AND SPIN POPULATIONS
-------------------------------------------
   0 C :   -0.142268    0.904687
   1 H :    0.047227    0.032339
   2 H :    0.021915    0.040281
   3 H :    0.073125    0.022693

  Mayer bond orders larger than 0.100000
B(  0-C ,  1-H ) :   0.9773 B(  0-C ,  2-H ) :   0.9785 B(  0-C ,  3-H ) :   0.9803

FINAL SINGLE POINT ENERGY       -39.822733319343

DIPOLE MOMENT
-------------
                                X             Y             Z
Electronic contribution:      0.04106       0.17002       0.02998
Nuclear contribution   :     -0.05224      -0.16767      -0.04023
                        -----------------------------------------
Total Dipole Moment    :     -0.01119       0.00235      -0.01025
                        -----------------------------------------
Magnitude (a.u.)       :      0.01536
Magnitude (Debye)      :      0.03903

Rotational constants in cm-1:    10.652260     8.804095     4.821200
Rotational constants in MHz : 319346.716665 263940.115272 144535.953394

                             ****ORCA TERMINATED NORMALLY****
TOTAL RUN TIME: 0 days 0 hours 0 minutes 17 seconds 670 msec
