                         Program Version 5.0.3 -  RELEASE  -
|  1> !B3LYP EPR-III Autoaux
|  2> !PAL4
|  3>
|  4> * xyz 0 2
|  5>  C    -81.1575795635   -107.7798652971    -30.6501203263
|  6>  H    -81.5919576381   -106.8355293869    -30.5873362409
|  7>  H    -81.6362875541   -108.6317646602    -30.7643971401
|  8>  H    -80.0737008634   -108.0311491113    -30.6468664614
|  9> *
| 10>
| 11> %EPRNMR
| 12>         GTENSOR   TRUE
| 13>         NUCLEI    = ALL H {AISO, ADIP, AORB}
| 14>         NUCLEI    = ALL C {AISO, ADIP, AORB}
| 15> END
| 16>
| 17>
| 18>                          ****END OF INPUT****

CARTESIAN COORDINATES (ANGSTROEM)
---------------------------------
  C    -81.157580  -107.779865  -30.650120
  H    -81.591958  -106.835529  -30.587336
  H    -81.636288  -108.631765  -30.764397
  H    -80.073701  -108.031149  -30.646866

 Total Charge           Charge          ....    0
 Multiplicity           Mult            ....    2
 Number of Electrons    NEL             ....    9
 Basis Dimension        Dim             ....   73

ORBITAL ENERGIES
----------------
                 SPIN UP ORBITALS
  NO   OCC          E(Eh)            E(eV)
   0   1.0000     -10.173520      -276.8356
   1   1.0000      -0.699766       -19.0416
   2   1.0000      -0.453101       -12.3295
   3   1.0000      -0.406030       -11.0486
   4   1.0000      -0.235061        -6.3963
   5   0.0000       0.001606         0.0437
   6   0.0000       0.034494         0.9386
   7   0.0000       0.038931         1.0594
   8   0.0000       0.047611         1.2956
   9   0.0000       0.086378         2.3505

                 SPIN DOWN ORBITALS
  NO   OCC          E(Eh)            E(eV)
   0   1.0000     -10.159254      -276.4474
   1   1.0000      -0.660818       -17.9818
   2   1.0000      -0.443237       -12.0611
   3   1.0000      -0.396033       -10.7766
   4   0.0000      -0.077888        -2.1194
   5   0.0000       0.004494         0.1223
   6   0.0000       0.034121         0.9285
   7   0.0000       0.038469         1.0468
   8   0.0000       0.060749         1.6531

MULLIKEN ATOMIC CHARGES AND SPIN POPULATIONS
--------------------------------------------
   0 C :   -0.433252    1.098891
   1 H :    0.152893   -0.030346
   2 H :    0.147191   -0.030525
   3 H :    0.133169   -0.038019
Sum of atomic charges         :    0.0000000

LOEWDIN ATOMIC CHARGES AND SPIN POPULATIONS
-------------------------------------------
   0 C :   -0.114824    0.891361
   1 H :    0.039496    0.036264
   2 H :    0.003200    0.047252
   3 H :    0.072128    0.025123

  Mayer bond orders larger than 0.100000
B(  0-C ,  1-H ) :   0.9815 B(  0-C ,  2-H ) :   0.9818 B(  0-C ,  3-H ) :   0.9837

FINAL SINGLE POINT ENERGY       -39.815865019513

DIPOLE MOMENT
-------------
                                X             Y             Z
Electronic contribution:     -0.13852       0.09466       0.02179
Nuclear contribution   :      0.12801      -0.11905      -0.03615
                        -----------------------------------------
Total Dipole Moment    :     -0.01052      -0.02440      -0.01436
                        -----------------------------------------
Magnitude (a.u.)       :      0.03020
Magnitude (Debye)      :      0.07676

Rotational constants in cm-1:    12.206437     8.724839     5.089283
Rotational constants in MHz : 365939.764507 261564.103381 152572.863179

                             ****ORCA TERMINATED NORMALLY****
TOTAL RUN TIME: 0 days 0 hours 0 minutes 22 seconds 740 msec
