                         Program Version 5.0.3 -  RELEASE  -
|  1> !B3LYP EPR-III Autoaux
|  2> !PAL4
|  3>
|  4> * xyz 0 2
|  5>  C      3.3720178291    -11.0173737698     -9.5120025999
|  6>  H      2.3724646331    -11.0175325756     -9.9000293486
|  7>  H      4.1343795381    -11.5201943614    -10.1943702087
|  8>  H      3.7460909635    -10.7582218675     -8.5079575611
|  9> *
| 10>
| 11> %EPRNMR
| 12>         GTENSOR   TRUE
| 13>         NUCLEI    = ALL H {AISO, ADIP, AORB}
| 14>         NUCLEI    = ALL C {AISO, ADIP, AORB}
| 15> END
| 16>
| 17>
| 18>                          ****END OF INPUT****

CARTESIAN COORDINATES (ANGSTROEM)
---------------------------------
  C      3.372018  -11.017374   -9.512003
  H      2.372465  -11.017533   -9.900029
  H      4.134380  -11.520194  -10.194370
  H      3.746091  -10.758222   -8.507958

 Total Charge           Charge          ....    0
 Multiplicity           Mult            ....    2
 Number of Electrons    NEL             ....    9
 Basis Dimension        Dim             ....   73

ORBITAL ENERGIES
----------------
                 SPIN UP ORBITALS
  NO   OCC          E(Eh)            E(eV)
   0   1.0000     -10.191880      -277.3351
   1   1.0000      -0.681742       -18.5511
   2   1.0000      -0.435281       -11.8446
   3   1.0000      -0.398939       -10.8557
   4   1.0000      -0.235824        -6.4171
   5   0.0000       0.000033         0.0009
   6   0.0000       0.034856         0.9485
   7   0.0000       0.038451         1.0463
   8   0.0000       0.047321         1.2877
   9   0.0000       0.082211         2.2371

                 SPIN DOWN ORBITALS
  NO   OCC          E(Eh)            E(eV)
   0   1.0000     -10.177278      -276.9378
   1   1.0000      -0.642141       -17.4735
   2   1.0000      -0.426048       -11.5933
   3   1.0000      -0.389634       -10.6025
   4   0.0000      -0.077685        -2.1139
   5   0.0000       0.003382         0.0920
   6   0.0000       0.034552         0.9402
   7   0.0000       0.038112         1.0371
   8   0.0000       0.060600         1.6490

MULLIKEN ATOMIC CHARGES AND SPIN POPULATIONS
--------------------------------------------
   0 C :   -0.427645    1.106739
   1 H :    0.149618   -0.033275
   2 H :    0.129484   -0.038375
   3 H :    0.148543   -0.035090
Sum of atomic charges         :    0.0000000

LOEWDIN ATOMIC CHARGES AND SPIN POPULATIONS
-------------------------------------------
   0 C :   -0.170788    0.918079
   1 H :    0.042847    0.032438
   2 H :    0.070132    0.022067
   3 H :    0.057809    0.027416

  Mayer bond orders larger than 0.100000
B(  0-C ,  1-H ) :   0.9737 B(  0-C ,  2-H ) :   0.9766 B(  0-C ,  3-H ) :   0.9731

FINAL SINGLE POINT ENERGY       -39.824269998910

DIPOLE MOMENT
-------------
                                X             Y             Z
Electronic contribution:     -0.10897       0.13724       0.06181
Nuclear contribution   :      0.10259      -0.18274      -0.04973
                        -----------------------------------------
Total Dipole Moment    :     -0.00638      -0.04550       0.01208
                        -----------------------------------------
Magnitude (a.u.)       :      0.04751
Magnitude (Debye)      :      0.12076

Rotational constants in cm-1:     9.794967     8.535838     4.580225
Rotational constants in MHz : 293645.709454 255897.994812 137311.700196

                             ****ORCA TERMINATED NORMALLY****
TOTAL RUN TIME: 0 days 0 hours 0 minutes 29 seconds 754 msec
