                         Program Version 5.0.3 -  RELEASE  -
|  1> !B3LYP EPR-III Autoaux
|  2> !PAL4
|  3>
|  4> * xyz 0 2
|  5>  C    -25.0206919069    -43.2110747127    -16.8515417354
|  6>  H    -25.7876759727    -42.3602921176    -17.0919249392
|  7>  H    -25.5866133303    -44.1370818655    -16.7956805944
|  8>  H    -23.9291125481    -43.1887791237    -16.7901007990
|  9> *
| 10>
| 11> %EPRNMR
| 12>         GTENSOR   TRUE
| 13>         NUCLEI    = ALL H {AISO, ADIP, AORB}
| 14>         NUCLEI    = ALL C {AISO, ADIP, AORB}
| 15> END
| 16>
| 17>
| 18>                          ****END OF INPUT****

CARTESIAN COORDINATES (ANGSTROEM)
---------------------------------
  C    -25.020692  -43.211075  -16.851542
  H    -25.787676  -42.360292  -17.091925
  H    -25.586613  -44.137082  -16.795681
  H    -23.929113  -43.188779  -16.790101

 Total Charge           Charge          ....    0
 Multiplicity           Mult            ....    2
 Number of Electrons    NEL             ....    9
 Basis Dimension        Dim             ....   73

ORBITAL ENERGIES
----------------
                 SPIN UP ORBITALS
  NO   OCC          E(Eh)            E(eV)
   0   1.0000     -10.195155      -277.4243
   1   1.0000      -0.679378       -18.4868
   2   1.0000      -0.435196       -11.8423
   3   1.0000      -0.393173       -10.6988
   4   1.0000      -0.235441        -6.4067
   5   0.0000      -0.000836        -0.0227
   6   0.0000       0.034050         0.9266
   7   0.0000       0.038921         1.0591
   8   0.0000       0.047256         1.2859
   9   0.0000       0.074948         2.0394

                 SPIN DOWN ORBITALS
  NO   OCC          E(Eh)            E(eV)
   0   1.0000     -10.180479      -277.0249
   1   1.0000      -0.639639       -17.4055
   2   1.0000      -0.426250       -11.5989
   3   1.0000      -0.383781       -10.4432
   4   0.0000      -0.077317        -2.1039
   5   0.0000       0.002749         0.0748
   6   0.0000       0.033814         0.9201
   7   0.0000       0.038599         1.0503
   8   0.0000       0.060588         1.6487

MULLIKEN ATOMIC CHARGES AND SPIN POPULATIONS
--------------------------------------------
   0 C :   -0.431634    1.111278
   1 H :    0.138868   -0.041648
   2 H :    0.138006   -0.035907
   3 H :    0.154759   -0.033724
Sum of atomic charges         :    0.0000000

LOEWDIN ATOMIC CHARGES AND SPIN POPULATIONS
-------------------------------------------
   0 C :   -0.181503    0.923624
   1 H :    0.083381    0.016964
   2 H :    0.045107    0.030544
   3 H :    0.053015    0.028867

  Mayer bond orders larger than 0.100000
B(  0-C ,  1-H ) :   0.9731 B(  0-C ,  2-H ) :   0.9739 B(  0-C ,  3-H ) :   0.9706

FINAL SINGLE POINT ENERGY       -39.819989922206

DIPOLE MOMENT
-------------
                                X             Y             Z
Electronic contribution:      0.17103       0.01206       0.06558
Nuclear contribution   :     -0.18087      -0.03967      -0.09225
                        -----------------------------------------
Total Dipole Moment    :     -0.00984      -0.02761      -0.02667
                        -----------------------------------------
Magnitude (a.u.)       :      0.03962
Magnitude (Debye)      :      0.10072

Rotational constants in cm-1:    10.515760     7.763587     4.473495
Rotational constants in MHz : 315254.542727 232746.485153 134112.018835

                             ****ORCA TERMINATED NORMALLY****
TOTAL RUN TIME: 0 days 0 hours 0 minutes 26 seconds 165 msec
