                         Program Version 5.0.3 -  RELEASE  -
|  1> !B3LYP EPR-III Autoaux
|  2> !PAL4
|  3>
|  4> * xyz 0 2
|  5>  C    -21.5654767426    -39.3054414114    -15.9581943758
|  6>  H    -21.5266756975    -40.3207201204    -15.7787505903
|  7>  H    -20.7484354956    -38.6319643447    -16.2812107655
|  8>  H    -22.5818157421    -38.9121960075    -15.9466266173
|  9> *
| 10>
| 11> %EPRNMR
| 12>         GTENSOR   TRUE
| 13>         NUCLEI    = ALL H {AISO, ADIP, AORB}
| 14>         NUCLEI    = ALL C {AISO, ADIP, AORB}
| 15> END
| 16>
| 17>
| 18>                          ****END OF INPUT****

CARTESIAN COORDINATES (ANGSTROEM)
---------------------------------
  C    -21.565477  -39.305441  -15.958194
  H    -21.526676  -40.320720  -15.778751
  H    -20.748435  -38.631964  -16.281211
  H    -22.581816  -38.912196  -15.946627

 Total Charge           Charge          ....    0
 Multiplicity           Mult            ....    2
 Number of Electrons    NEL             ....    9
 Basis Dimension        Dim             ....   73

ORBITAL ENERGIES
----------------
                 SPIN UP ORBITALS
  NO   OCC          E(Eh)            E(eV)
   0   1.0000     -10.182963      -277.0925
   1   1.0000      -0.689721       -18.7683
   2   1.0000      -0.436518       -11.8783
   3   1.0000      -0.409715       -11.1489
   4   1.0000      -0.235315        -6.4032
   5   0.0000       0.001018         0.0277
   6   0.0000       0.035324         0.9612
   7   0.0000       0.038182         1.0390
   8   0.0000       0.047491         1.2923
   9   0.0000       0.085952         2.3389

                 SPIN DOWN ORBITALS
  NO   OCC          E(Eh)            E(eV)
   0   1.0000     -10.168537      -276.7000
   1   1.0000      -0.650480       -17.7005
   2   1.0000      -0.427017       -11.6197
   3   1.0000      -0.400044       -10.8857
   4   0.0000      -0.077688        -2.1140
   5   0.0000       0.004103         0.1116
   6   0.0000       0.034985         0.9520
   7   0.0000       0.037764         1.0276
   8   0.0000       0.060712         1.6521

MULLIKEN ATOMIC CHARGES AND SPIN POPULATIONS
--------------------------------------------
   0 C :   -0.428292    1.101987
   1 H :    0.148163   -0.031344
   2 H :    0.146343   -0.035307
   3 H :    0.133787   -0.035337
Sum of atomic charges         :   -0.0000000

LOEWDIN ATOMIC CHARGES AND SPIN POPULATIONS
-------------------------------------------
   0 C :   -0.145375    0.905335
   1 H :    0.026094    0.038997
   2 H :    0.064935    0.026169
   3 H :    0.054345    0.029500

  Mayer bond orders larger than 0.100000
B(  0-C ,  1-H ) :   0.9783 B(  0-C ,  2-H ) :   0.9767 B(  0-C ,  3-H ) :   0.9797

FINAL SINGLE POINT ENERGY       -39.824883571175

DIPOLE MOMENT
-------------
                                X             Y             Z
Electronic contribution:      0.10259      -0.04972       0.06319
Nuclear contribution   :     -0.12029       0.03856      -0.09894
                        -----------------------------------------
Total Dipole Moment    :     -0.01770      -0.01117      -0.03574
                        -----------------------------------------
Magnitude (a.u.)       :      0.04142
Magnitude (Debye)      :      0.10528

Rotational constants in cm-1:    10.663413     8.749634     4.820240
Rotational constants in MHz : 319681.065488 262307.421235 144507.167898

                             ****ORCA TERMINATED NORMALLY****
TOTAL RUN TIME: 0 days 0 hours 0 minutes 30 seconds 887 msec
