                         Program Version 5.0.3 -  RELEASE  -
|  1> !B3LYP EPR-III Autoaux
|  2> !PAL4
|  3>
|  4> * xyz 0 2
|  5>  C    -16.4415970167    -33.5371233663    -14.6567536042
|  6>  H    -16.2973897911    -34.4673830826    -14.2372348359
|  7>  H    -15.4915071804    -32.9136347102    -14.5956753189
|  8>  H    -17.4536029345    -33.1856736279    -15.0028195649
|  9> *
| 10>
| 11> %EPRNMR
| 12>         GTENSOR   TRUE
| 13>         NUCLEI    = ALL H {AISO, ADIP, AORB}
| 14>         NUCLEI    = ALL C {AISO, ADIP, AORB}
| 15> END
| 16>
| 17>
| 18>                          ****END OF INPUT****

CARTESIAN COORDINATES (ANGSTROEM)
---------------------------------
  C    -16.441597  -33.537123  -14.656754
  H    -16.297390  -34.467383  -14.237235
  H    -15.491507  -32.913635  -14.595675
  H    -17.453603  -33.185674  -15.002820

 Total Charge           Charge          ....    0
 Multiplicity           Mult            ....    2
 Number of Electrons    NEL             ....    9
 Basis Dimension        Dim             ....   73

ORBITAL ENERGIES
----------------
                 SPIN UP ORBITALS
  NO   OCC          E(Eh)            E(eV)
   0   1.0000     -10.189275      -277.2643
   1   1.0000      -0.684761       -18.6333
   2   1.0000      -0.428628       -11.6636
   3   1.0000      -0.407651       -11.0928
   4   1.0000      -0.235224        -6.4008
   5   0.0000      -0.000025        -0.0007
   6   0.0000       0.035276         0.9599
   7   0.0000       0.038031         1.0349
   8   0.0000       0.047379         1.2892
   9   0.0000       0.079802         2.1715

                 SPIN DOWN ORBITALS
  NO   OCC          E(Eh)            E(eV)
   0   1.0000     -10.174717      -276.8681
   1   1.0000      -0.645314       -17.5599
   2   1.0000      -0.419370       -11.4116
   3   1.0000      -0.398108       -10.8331
   4   0.0000      -0.077374        -2.1054
   5   0.0000       0.003338         0.0908
   6   0.0000       0.035004         0.9525
   7   0.0000       0.037663         1.0249
   8   0.0000       0.060669         1.6509

MULLIKEN ATOMIC CHARGES AND SPIN POPULATIONS
--------------------------------------------
   0 C :   -0.429447    1.106906
   1 H :    0.144046   -0.031988
   2 H :    0.137398   -0.038620
   3 H :    0.148003   -0.036297
Sum of atomic charges         :    0.0000000

LOEWDIN ATOMIC CHARGES AND SPIN POPULATIONS
-------------------------------------------
   0 C :   -0.163165    0.914806
   1 H :    0.019753    0.039841
   2 H :    0.073272    0.021886
   3 H :    0.070140    0.023467

  Mayer bond orders larger than 0.100000
B(  0-C ,  1-H ) :   0.9754 B(  0-C ,  2-H ) :   0.9760 B(  0-C ,  3-H ) :   0.9731

FINAL SINGLE POINT ENERGY       -39.821643390203

DIPOLE MOMENT
-------------
                                X             Y             Z
Electronic contribution:     -0.06531      -0.04435      -0.06163
Nuclear contribution   :      0.06168       0.03349       0.10083
                        -----------------------------------------
Total Dipole Moment    :     -0.00363      -0.01087       0.03920
                        -----------------------------------------
Magnitude (a.u.)       :      0.04084
Magnitude (Debye)      :      0.10381

Rotational constants in cm-1:    10.780224     8.058432     4.620837
Rotational constants in MHz : 323182.987121 241585.722171 138529.219021

                             ****ORCA TERMINATED NORMALLY****
TOTAL RUN TIME: 0 days 0 hours 0 minutes 40 seconds 218 msec
