                         Program Version 5.0.3 -  RELEASE  -
|  1> !B3LYP EPR-III Autoaux
|  2> !PAL4
|  3>
|  4> * xyz 0 2
|  5>  C     -3.3371674340    -18.7234795618    -11.2564100884
|  6>  H     -3.1840557851    -17.7596555030    -10.7048659397
|  7>  H     -4.1338969950    -18.6708318556    -11.9567610065
|  8>  H     -2.8038658505    -19.6700107576    -11.0378272124
|  9> *
| 10>
| 11> %EPRNMR
| 12>         GTENSOR   TRUE
| 13>         NUCLEI    = ALL H {AISO, ADIP, AORB}
| 14>         NUCLEI    = ALL C {AISO, ADIP, AORB}
| 15> END
| 16>
| 17>
| 18>                          ****END OF INPUT****

CARTESIAN COORDINATES (ANGSTROEM)
---------------------------------
  C     -3.337167  -18.723480  -11.256410
  H     -3.184056  -17.759656  -10.704866
  H     -4.133897  -18.670832  -11.956761
  H     -2.803866  -19.670011  -11.037827

 Total Charge           Charge          ....    0
 Multiplicity           Mult            ....    2
 Number of Electrons    NEL             ....    9
 Basis Dimension        Dim             ....   73

ORBITAL ENERGIES
----------------
                 SPIN UP ORBITALS
  NO   OCC          E(Eh)            E(eV)
   0   1.0000     -10.189203      -277.2623
   1   1.0000      -0.683619       -18.6022
   2   1.0000      -0.428037       -11.6475
   3   1.0000      -0.409525       -11.1437
   4   1.0000      -0.235052        -6.3961
   5   0.0000       0.000302         0.0082
   6   0.0000       0.035551         0.9674
   7   0.0000       0.037855         1.0301
   8   0.0000       0.047400         1.2898
   9   0.0000       0.083791         2.2801

                 SPIN DOWN ORBITALS
  NO   OCC          E(Eh)            E(eV)
   0   1.0000     -10.174666      -276.8667
   1   1.0000      -0.644085       -17.5264
   2   1.0000      -0.418862       -11.3978
   3   1.0000      -0.400019       -10.8851
   4   0.0000      -0.077295        -2.1033
   5   0.0000       0.003610         0.0982
   6   0.0000       0.035241         0.9590
   7   0.0000       0.037477         1.0198
   8   0.0000       0.060697         1.6516

MULLIKEN ATOMIC CHARGES AND SPIN POPULATIONS
--------------------------------------------
   0 C :   -0.427729    1.106151
   1 H :    0.138649   -0.037288
   2 H :    0.141646   -0.033607
   3 H :    0.147434   -0.035257
Sum of atomic charges         :    0.0000000

LOEWDIN ATOMIC CHARGES AND SPIN POPULATIONS
-------------------------------------------
   0 C :   -0.164433    0.914772
   1 H :    0.065667    0.024573
   2 H :    0.037084    0.034320
   3 H :    0.061683    0.026335

  Mayer bond orders larger than 0.100000
B(  0-C ,  1-H ) :   0.9758 B(  0-C ,  2-H ) :   0.9758 B(  0-C ,  3-H ) :   0.9737

FINAL SINGLE POINT ENERGY       -39.825795664585

DIPOLE MOMENT
-------------
                                X             Y             Z
Electronic contribution:      0.05220      -0.05626      -0.04110
Nuclear contribution   :     -0.08268       0.05242       0.05230
                        -----------------------------------------
Total Dipole Moment    :     -0.03048      -0.00384       0.01119
                        -----------------------------------------
Magnitude (a.u.)       :      0.03270
Magnitude (Debye)      :      0.08311

Rotational constants in cm-1:    10.254275     8.432387     4.634751
Rotational constants in MHz : 307415.437996 252796.614480 138946.333765

                             ****ORCA TERMINATED NORMALLY****
TOTAL RUN TIME: 0 days 0 hours 0 minutes 18 seconds 964 msec
