                         Program Version 5.0.3 -  RELEASE  -
|  1> !B3LYP EPR-III Autoaux
|  2> !PAL4
|  3>
|  4> * xyz 0 2
|  5>  C    -92.2248761649   -121.5516058282    -33.0893197469
|  6>  H    -91.9994902361   -122.6342002143    -33.1731173059
|  7>  H    -91.4376800659   -120.8076256502    -32.9923660050
|  8>  H    -93.2403825195   -121.3339720278    -33.1327992691
|  9> *
| 10>
| 11> %EPRNMR
| 12>         GTENSOR   TRUE
| 13>         NUCLEI    = ALL H {AISO, ADIP, AORB}
| 14>         NUCLEI    = ALL C {AISO, ADIP, AORB}
| 15> END
| 16>
| 17>
| 18>                          ****END OF INPUT****

CARTESIAN COORDINATES (ANGSTROEM)
---------------------------------
  C    -92.224876  -121.551606  -33.089320
  H    -91.999490  -122.634200  -33.173117
  H    -91.437680  -120.807626  -32.992366
  H    -93.240383  -121.333972  -33.132799

 Total Charge           Charge          ....    0
 Multiplicity           Mult            ....    2
 Number of Electrons    NEL             ....    9
 Basis Dimension        Dim             ....   73

ORBITAL ENERGIES
----------------
                 SPIN UP ORBITALS
  NO   OCC          E(Eh)            E(eV)
   0   1.0000     -10.183620      -277.1104
   1   1.0000      -0.688533       -18.7359
   2   1.0000      -0.433888       -11.8067
   3   1.0000      -0.412153       -11.2152
   4   1.0000      -0.234732        -6.3874
   5   0.0000       0.001002         0.0273
   6   0.0000       0.035678         0.9709
   7   0.0000       0.037805         1.0287
   8   0.0000       0.047499         1.2925
   9   0.0000       0.088528         2.4090

                 SPIN DOWN ORBITALS
  NO   OCC          E(Eh)            E(eV)
   0   1.0000     -10.169198      -276.7179
   1   1.0000      -0.649125       -17.6636
   2   1.0000      -0.424392       -11.5483
   3   1.0000      -0.402652       -10.9567
   4   0.0000      -0.077336        -2.1044
   5   0.0000       0.004128         0.1123
   6   0.0000       0.035315         0.9610
   7   0.0000       0.037402         1.0177
   8   0.0000       0.060752         1.6531

MULLIKEN ATOMIC CHARGES AND SPIN POPULATIONS
--------------------------------------------
   0 C :   -0.427884    1.103081
   1 H :    0.136044   -0.036679
   2 H :    0.146767   -0.034191
   3 H :    0.145073   -0.032211
Sum of atomic charges         :    0.0000000

LOEWDIN ATOMIC CHARGES AND SPIN POPULATIONS
-------------------------------------------
   0 C :   -0.147338    0.906521
   1 H :    0.063122    0.026292
   2 H :    0.055066    0.029388
   3 H :    0.029151    0.037798

  Mayer bond orders larger than 0.100000
B(  0-C ,  1-H ) :   0.9786 B(  0-C ,  2-H ) :   0.9767 B(  0-C ,  3-H ) :   0.9779

FINAL SINGLE POINT ENERGY       -39.826309466318

DIPOLE MOMENT
-------------
                                X             Y             Z
Electronic contribution:     -0.00755       0.08920       0.01636
Nuclear contribution   :     -0.00219      -0.09067      -0.02273
                        -----------------------------------------
Total Dipole Moment    :     -0.00974      -0.00147      -0.00637
                        -----------------------------------------
Magnitude (a.u.)       :      0.01173
Magnitude (Debye)      :      0.02981

Rotational constants in cm-1:    10.378690     8.892720     4.789502
Rotational constants in MHz : 311145.299766 266597.042324 143585.662359

                             ****ORCA TERMINATED NORMALLY****
TOTAL RUN TIME: 0 days 0 hours 0 minutes 33 seconds 379 msec
