                         Program Version 5.0.3 -  RELEASE  -
|  1> !B3LYP EPR-III Autoaux
|  2> !PAL4
|  3>
|  4> * xyz 0 2
|  5>  C      2.8282863156    -11.6694295463     -9.6671807913
|  6>  H      3.1782411438    -12.6932373600     -9.6533825627
|  7>  H      3.0138136380    -10.9442228002    -10.3867294982
|  8>  H      2.1529279935    -11.4523927597     -8.8631090269
|  9> *
| 10>
| 11> %EPRNMR
| 12>         GTENSOR   TRUE
| 13>         NUCLEI    = ALL H {AISO, ADIP, AORB}
| 14>         NUCLEI    = ALL C {AISO, ADIP, AORB}
| 15> END
| 16>
| 17>
| 18>                          ****END OF INPUT****

CARTESIAN COORDINATES (ANGSTROEM)
---------------------------------
  C      2.828286  -11.669430   -9.667181
  H      3.178241  -12.693237   -9.653383
  H      3.013814  -10.944223  -10.386729
  H      2.152928  -11.452393   -8.863109

 Total Charge           Charge          ....    0
 Multiplicity           Mult            ....    2
 Number of Electrons    NEL             ....    9
 Basis Dimension        Dim             ....   73

ORBITAL ENERGIES
----------------
                 SPIN UP ORBITALS
  NO   OCC          E(Eh)            E(eV)
   0   1.0000     -10.179360      -276.9945
   1   1.0000      -0.692282       -18.8379
   2   1.0000      -0.440899       -11.9975
   3   1.0000      -0.411330       -11.1929
   4   1.0000      -0.234912        -6.3923
   5   0.0000       0.001462         0.0398
   6   0.0000       0.035303         0.9606
   7   0.0000       0.038252         1.0409
   8   0.0000       0.047564         1.2943
   9   0.0000       0.088654         2.4124

                 SPIN DOWN ORBITALS
  NO   OCC          E(Eh)            E(eV)
   0   1.0000     -10.165016      -276.6042
   1   1.0000      -0.653044       -17.7702
   2   1.0000      -0.431336       -11.7373
   3   1.0000      -0.401597       -10.9280
   4   0.0000      -0.077608        -2.1118
   5   0.0000       0.004445         0.1209
   6   0.0000       0.034918         0.9502
   7   0.0000       0.037813         1.0289
   8   0.0000       0.060766         1.6535

MULLIKEN ATOMIC CHARGES AND SPIN POPULATIONS
--------------------------------------------
   0 C :   -0.428357    1.100162
   1 H :    0.142440   -0.034817
   2 H :    0.150000   -0.030921
   3 H :    0.135918   -0.034424
Sum of atomic charges         :    0.0000000

LOEWDIN ATOMIC CHARGES AND SPIN POPULATIONS
-------------------------------------------
   0 C :   -0.135322    0.900210
   1 H :    0.054504    0.030173
   2 H :    0.032589    0.037471
   3 H :    0.048229    0.032146

  Mayer bond orders larger than 0.100000
B(  0-C ,  1-H ) :   0.9797 B(  0-C ,  2-H ) :   0.9793 B(  0-C ,  3-H ) :   0.9807

FINAL SINGLE POINT ENERGY       -39.826223377422

DIPOLE MOMENT
-------------
                                X             Y             Z
Electronic contribution:      0.07943       0.05421      -0.07593
Nuclear contribution   :     -0.10483      -0.06113       0.07369
                        -----------------------------------------
Total Dipole Moment    :     -0.02541      -0.00692      -0.00224
                        -----------------------------------------
Magnitude (a.u.)       :      0.02643
Magnitude (Debye)      :      0.06718

Rotational constants in cm-1:    10.605936     9.183045     4.926682
Rotational constants in MHz : 317957.968775 275300.776227 147698.222821

                             ****ORCA TERMINATED NORMALLY****
TOTAL RUN TIME: 0 days 0 hours 0 minutes 18 seconds 912 msec
