                         Program Version 5.0.3 -  RELEASE  -
|  1> !B3LYP EPR-III Autoaux
|  2> !PAL4
|  3>
|  4> * xyz 0 2
|  5>  C    -67.4371809179    -91.1147588944    -27.4218761377
|  6>  H    -68.4871067774    -90.7877038109    -27.3816504764
|  7>  H    -67.3730823690    -92.1686388188    -27.5115671892
|  8>  H    -66.6420925802    -90.2885743285    -27.3100482332
|  9> *
| 10>
| 11> %EPRNMR
| 12>         GTENSOR   TRUE
| 13>         NUCLEI    = ALL H {AISO, ADIP, AORB}
| 14>         NUCLEI    = ALL C {AISO, ADIP, AORB}
| 15> END
| 16>
| 17>
| 18>                          ****END OF INPUT****

CARTESIAN COORDINATES (ANGSTROEM)
---------------------------------
  C    -67.437181  -91.114759  -27.421876
  H    -68.487107  -90.787704  -27.381650
  H    -67.373082  -92.168639  -27.511567
  H    -66.642093  -90.288574  -27.310048

 Total Charge           Charge          ....    0
 Multiplicity           Mult            ....    2
 Number of Electrons    NEL             ....    9
 Basis Dimension        Dim             ....   73

ORBITAL ENERGIES
----------------
                 SPIN UP ORBITALS
  NO   OCC          E(Eh)            E(eV)
   0   1.0000     -10.191184      -277.3162
   1   1.0000      -0.682897       -18.5826
   2   1.0000      -0.432796       -11.7770
   3   1.0000      -0.400655       -10.9024
   4   1.0000      -0.235005        -6.3948
   5   0.0000      -0.000199        -0.0054
   6   0.0000       0.034421         0.9367
   7   0.0000       0.038603         1.0504
   8   0.0000       0.047350         1.2884
   9   0.0000       0.076546         2.0829

                 SPIN DOWN ORBITALS
  NO   OCC          E(Eh)            E(eV)
   0   1.0000     -10.176596      -276.9193
   1   1.0000      -0.643346       -17.5063
   2   1.0000      -0.423781       -11.5317
   3   1.0000      -0.391030       -10.6405
   4   0.0000      -0.077202        -2.1008
   5   0.0000       0.003233         0.0880
   6   0.0000       0.034191         0.9304
   7   0.0000       0.038222         1.0401
   8   0.0000       0.060665         1.6508

MULLIKEN ATOMIC CHARGES AND SPIN POPULATIONS
--------------------------------------------
   0 C :   -0.431743    1.109264
   1 H :    0.131839   -0.036551
   2 H :    0.150331   -0.033613
   3 H :    0.149573   -0.039100
Sum of atomic charges         :   -0.0000000

LOEWDIN ATOMIC CHARGES AND SPIN POPULATIONS
-------------------------------------------
   0 C :   -0.170979    0.917960
   1 H :    0.053449    0.028305
   2 H :    0.036849    0.034518
   3 H :    0.080681    0.019217

  Mayer bond orders larger than 0.100000
B(  0-C ,  1-H ) :   0.9768 B(  0-C ,  2-H ) :   0.9745 B(  0-C ,  3-H ) :   0.9715

FINAL SINGLE POINT ENERGY       -39.821560100494

DIPOLE MOMENT
-------------
                                X             Y             Z
Electronic contribution:      0.12161      -0.07465      -0.03179
Nuclear contribution   :     -0.14296       0.07447       0.04674
                        -----------------------------------------
Total Dipole Moment    :     -0.02134      -0.00019       0.01494
                        -----------------------------------------
Magnitude (a.u.)       :      0.02606
Magnitude (Debye)      :      0.06623

Rotational constants in cm-1:    10.702836     7.979550     4.573276
Rotational constants in MHz : 320862.945359 239220.894573 137103.372660

                             ****ORCA TERMINATED NORMALLY****
TOTAL RUN TIME: 0 days 0 hours 0 minutes 21 seconds 343 msec
