                         Program Version 5.0.3 -  RELEASE  -
|  1> !B3LYP EPR-III Autoaux
|  2> !PAL4
|  3>
|  4> * xyz 0 2
|  5>  C    -18.5996916151    -35.9572637570    -15.2022592601
|  6>  H    -18.5450675163    -34.8833622376    -15.5145466672
|  7>  H    -19.5545184605    -36.3219704368    -14.8260623637
|  8>  H    -17.7950451384    -36.7030698127    -15.2432342915
|  9> *
| 10>
| 11> %EPRNMR
| 12>         GTENSOR   TRUE
| 13>         NUCLEI    = ALL H {AISO, ADIP, AORB}
| 14>         NUCLEI    = ALL C {AISO, ADIP, AORB}
| 15> END
| 16>
| 17>
| 18>                          ****END OF INPUT****

CARTESIAN COORDINATES (ANGSTROEM)
---------------------------------
  C    -18.599692  -35.957264  -15.202259
  H    -18.545068  -34.883362  -15.514547
  H    -19.554518  -36.321970  -14.826062
  H    -17.795045  -36.703070  -15.243234

 Total Charge           Charge          ....    0
 Multiplicity           Mult            ....    2
 Number of Electrons    NEL             ....    9
 Basis Dimension        Dim             ....   73

ORBITAL ENERGIES
----------------
                 SPIN UP ORBITALS
  NO   OCC          E(Eh)            E(eV)
   0   1.0000     -10.190752      -277.3045
   1   1.0000      -0.681848       -18.5540
   2   1.0000      -0.425808       -11.5868
   3   1.0000      -0.409838       -11.1522
   4   1.0000      -0.234736        -6.3875
   5   0.0000       0.000152         0.0041
   6   0.0000       0.035532         0.9669
   7   0.0000       0.037803         1.0287
   8   0.0000       0.047389         1.2895
   9   0.0000       0.082486         2.2446

                 SPIN DOWN ORBITALS
  NO   OCC          E(Eh)            E(eV)
   0   1.0000     -10.176193      -276.9083
   1   1.0000      -0.642172       -17.4744
   2   1.0000      -0.416835       -11.3427
   3   1.0000      -0.400314       -10.8931
   4   0.0000      -0.077081        -2.0975
   5   0.0000       0.003525         0.0959
   6   0.0000       0.035227         0.9586
   7   0.0000       0.037427         1.0185
   8   0.0000       0.060715         1.6521

MULLIKEN ATOMIC CHARGES AND SPIN POPULATIONS
--------------------------------------------
   0 C :   -0.428088    1.107672
   1 H :    0.145417   -0.036737
   2 H :    0.137437   -0.035417
   3 H :    0.145234   -0.035519
Sum of atomic charges         :   -0.0000000

LOEWDIN ATOMIC CHARGES AND SPIN POPULATIONS
-------------------------------------------
   0 C :   -0.169788    0.917277
   1 H :    0.065524    0.024574
   2 H :    0.048998    0.029972
   3 H :    0.055267    0.028177

  Mayer bond orders larger than 0.100000
B(  0-C ,  1-H ) :   0.9733 B(  0-C ,  2-H ) :   0.9755 B(  0-C ,  3-H ) :   0.9740

FINAL SINGLE POINT ENERGY       -39.826426772913

DIPOLE MOMENT
-------------
                                X             Y             Z
Electronic contribution:      0.05969       0.01977      -0.01585
Nuclear contribution   :     -0.07162      -0.02744       0.01719
                        -----------------------------------------
Total Dipole Moment    :     -0.01193      -0.00767       0.00134
                        -----------------------------------------
Magnitude (a.u.)       :      0.01425
Magnitude (Debye)      :      0.03621

Rotational constants in cm-1:    10.044285     8.447813     4.588702
Rotational constants in MHz : 301120.081340 253259.065589 137565.816515

                             ****ORCA TERMINATED NORMALLY****
TOTAL RUN TIME: 0 days 0 hours 0 minutes 18 seconds 973 msec
