                         Program Version 5.0.3 -  RELEASE  -
|  1> !B3LYP EPR-III Autoaux
|  2> !PAL4
|  3>
|  4> * xyz 0 2
|  5>  C    -49.1997707140    -70.3218854930    -22.9612099586
|  6>  H    -48.1991052241    -70.7771044111    -23.0334853112
|  7>  H    -49.5085718476    -69.2983955739    -22.8294999280
|  8>  H    -50.1352253673    -70.9375289801    -23.0754494393
|  9> *
| 10>
| 11> %EPRNMR
| 12>         GTENSOR   TRUE
| 13>         NUCLEI    = ALL H {AISO, ADIP, AORB}
| 14>         NUCLEI    = ALL C {AISO, ADIP, AORB}
| 15> END
| 16>
| 17>
| 18>                          ****END OF INPUT****

CARTESIAN COORDINATES (ANGSTROEM)
---------------------------------
  C    -49.199771  -70.321885  -22.961210
  H    -48.199105  -70.777104  -23.033485
  H    -49.508572  -69.298396  -22.829500
  H    -50.135225  -70.937529  -23.075449

 Total Charge           Charge          ....    0
 Multiplicity           Mult            ....    2
 Number of Electrons    NEL             ....    9
 Basis Dimension        Dim             ....   73

ORBITAL ENERGIES
----------------
                 SPIN UP ORBITALS
  NO   OCC          E(Eh)            E(eV)
   0   1.0000     -10.190791      -277.3055
   1   1.0000      -0.682867       -18.5817
   2   1.0000      -0.438614       -11.9353
   3   1.0000      -0.396387       -10.7862
   4   1.0000      -0.235072        -6.3966
   5   0.0000       0.000078         0.0021
   6   0.0000       0.034238         0.9317
   7   0.0000       0.038879         1.0579
   8   0.0000       0.047355         1.2886
   9   0.0000       0.081757         2.2247

                 SPIN DOWN ORBITALS
  NO   OCC          E(Eh)            E(eV)
   0   1.0000     -10.176222      -276.9091
   1   1.0000      -0.643278       -17.5045
   2   1.0000      -0.429546       -11.6885
   3   1.0000      -0.386856       -10.5269
   4   0.0000      -0.077313        -2.1038
   5   0.0000       0.003439         0.0936
   6   0.0000       0.033956         0.9240
   7   0.0000       0.038494         1.0475
   8   0.0000       0.060659         1.6506

MULLIKEN ATOMIC CHARGES AND SPIN POPULATIONS
--------------------------------------------
   0 C :   -0.431220    1.108737
   1 H :    0.154038   -0.034691
   2 H :    0.146124   -0.035577
   3 H :    0.131059   -0.038469
Sum of atomic charges         :   -0.0000000

LOEWDIN ATOMIC CHARGES AND SPIN POPULATIONS
-------------------------------------------
   0 C :   -0.169946    0.917161
   1 H :    0.059344    0.027158
   2 H :    0.045371    0.031538
   3 H :    0.065231    0.024143

  Mayer bond orders larger than 0.100000
B(  0-C ,  1-H ) :   0.9723 B(  0-C ,  2-H ) :   0.9752 B(  0-C ,  3-H ) :   0.9772

FINAL SINGLE POINT ENERGY       -39.823146168341

DIPOLE MOMENT
-------------
                                X             Y             Z
Electronic contribution:      0.16898       0.03976       0.02879
Nuclear contribution   :     -0.18257      -0.03550      -0.04108
                        -----------------------------------------
Total Dipole Moment    :     -0.01358       0.00425      -0.01229
                        -----------------------------------------
Magnitude (a.u.)       :      0.01880
Magnitude (Debye)      :      0.04780

Rotational constants in cm-1:    10.635669     8.098974     4.599148
Rotational constants in MHz : 318849.350073 242801.146039 137878.990157

                             ****ORCA TERMINATED NORMALLY****
TOTAL RUN TIME: 0 days 0 hours 0 minutes 19 seconds 76 msec
