                         Program Version 5.0.3 -  RELEASE  -
|  1> !B3LYP EPR-III Autoaux
|  2> !PAL4
|  3>
|  4> * xyz 0 2
|  5>  C    -16.8162416655    -33.9553418779    -14.7458832955
|  6>  H    -16.2806455193    -34.7951520823    -14.5098491598
|  7>  H    -16.3838083705    -32.9832442299    -14.4722365706
|  8>  H    -17.7494867846    -34.0983623754    -15.2767357834
|  9> *
| 10>
| 11> %EPRNMR
| 12>         GTENSOR   TRUE
| 13>         NUCLEI    = ALL H {AISO, ADIP, AORB}
| 14>         NUCLEI    = ALL C {AISO, ADIP, AORB}
| 15> END
| 16>
| 17>
| 18>                          ****END OF INPUT****

CARTESIAN COORDINATES (ANGSTROEM)
---------------------------------
  C    -16.816242  -33.955342  -14.745883
  H    -16.280646  -34.795152  -14.509849
  H    -16.383808  -32.983244  -14.472237
  H    -17.749487  -34.098362  -15.276736

 Total Charge           Charge          ....    0
 Multiplicity           Mult            ....    2
 Number of Electrons    NEL             ....    9
 Basis Dimension        Dim             ....   73

ORBITAL ENERGIES
----------------
                 SPIN UP ORBITALS
  NO   OCC          E(Eh)            E(eV)
   0   1.0000     -10.180649      -277.0296
   1   1.0000      -0.691644       -18.8206
   2   1.0000      -0.427226       -11.6254
   3   1.0000      -0.423218       -11.5164
   4   1.0000      -0.234727        -6.3873
   5   0.0000       0.001198         0.0326
   6   0.0000       0.036104         0.9824
   7   0.0000       0.037406         1.0179
   8   0.0000       0.047447         1.2911
   9   0.0000       0.087149         2.3714

                 SPIN DOWN ORBITALS
  NO   OCC          E(Eh)            E(eV)
   0   1.0000     -10.166326      -276.6398
   1   1.0000      -0.652450       -17.7541
   2   1.0000      -0.418000       -11.3744
   3   1.0000      -0.413238       -11.2448
   4   0.0000      -0.077525        -2.1096
   5   0.0000       0.004241         0.1154
   6   0.0000       0.035705         0.9716
   7   0.0000       0.036952         1.0055
   8   0.0000       0.060667         1.6508

MULLIKEN ATOMIC CHARGES AND SPIN POPULATIONS
--------------------------------------------
   0 C :   -0.429041    1.100611
   1 H :    0.143186   -0.031226
   2 H :    0.142584   -0.035180
   3 H :    0.143271   -0.034205
Sum of atomic charges         :   -0.0000000

LOEWDIN ATOMIC CHARGES AND SPIN POPULATIONS
-------------------------------------------
   0 C :   -0.138156    0.901698
   1 H :    0.021860    0.040578
   2 H :    0.061779    0.027595
   3 H :    0.054518    0.030129

  Mayer bond orders larger than 0.100000
B(  0-C ,  1-H ) :   0.9791 B(  0-C ,  2-H ) :   0.9786 B(  0-C ,  3-H ) :   0.9789

FINAL SINGLE POINT ENERGY       -39.825699232209

DIPOLE MOMENT
-------------
                                X             Y             Z
Electronic contribution:     -0.01359      -0.00594       0.01055
Nuclear contribution   :      0.02607      -0.00804      -0.01587
                        -----------------------------------------
Total Dipole Moment    :      0.01248      -0.01398      -0.00531
                        -----------------------------------------
Magnitude (a.u.)       :      0.01948
Magnitude (Debye)      :      0.04953

Rotational constants in cm-1:    10.797575     8.899138     4.879348
Rotational constants in MHz : 323703.158658 266789.439501 146279.185359

                             ****ORCA TERMINATED NORMALLY****
TOTAL RUN TIME: 0 days 0 hours 0 minutes 40 seconds 226 msec
