                         Program Version 5.0.3 -  RELEASE  -
|  1> !B3LYP EPR-III Autoaux
|  2> !PAL4
|  3>
|  4> * xyz 0 2
|  5>  C      8.5721926230     -5.1670210185     -8.1719579546
|  6>  H      8.5082438204     -6.2440226887     -8.0821250729
|  7>  H      8.9302573675     -4.6052897330     -9.0924940321
|  8>  H      8.1358050772     -4.6040445075     -7.3179806510
|  9> *
| 10>
| 11> %EPRNMR
| 12>         GTENSOR   TRUE
| 13>         NUCLEI    = ALL H {AISO, ADIP, AORB}
| 14>         NUCLEI    = ALL C {AISO, ADIP, AORB}
| 15> END
| 16>
| 17>
| 18>                          ****END OF INPUT****

CARTESIAN COORDINATES (ANGSTROEM)
---------------------------------
  C      8.572193   -5.167021   -8.171958
  H      8.508244   -6.244023   -8.082125
  H      8.930257   -4.605290   -9.092494
  H      8.135805   -4.604045   -7.317981

 Total Charge           Charge          ....    0
 Multiplicity           Mult            ....    2
 Number of Electrons    NEL             ....    9
 Basis Dimension        Dim             ....   73

ORBITAL ENERGIES
----------------
                 SPIN UP ORBITALS
  NO   OCC          E(Eh)            E(eV)
   0   1.0000     -10.193173      -277.3703
   1   1.0000      -0.679921       -18.5016
   2   1.0000      -0.423456       -11.5228
   3   1.0000      -0.408693       -11.1211
   4   1.0000      -0.235185        -6.3997
   5   0.0000      -0.000196        -0.0053
   6   0.0000       0.035708         0.9717
   7   0.0000       0.037626         1.0238
   8   0.0000       0.047331         1.2879
   9   0.0000       0.082533         2.2458

                 SPIN DOWN ORBITALS
  NO   OCC          E(Eh)            E(eV)
   0   1.0000     -10.178556      -276.9726
   1   1.0000      -0.640213       -17.4211
   2   1.0000      -0.414387       -11.2760
   3   1.0000      -0.399372       -10.8675
   4   0.0000      -0.077214        -2.1011
   5   0.0000       0.003255         0.0886
   6   0.0000       0.035430         0.9641
   7   0.0000       0.037275         1.0143
   8   0.0000       0.060661         1.6507

MULLIKEN ATOMIC CHARGES AND SPIN POPULATIONS
--------------------------------------------
   0 C :   -0.427067    1.108226
   1 H :    0.144714   -0.034347
   2 H :    0.145112   -0.037348
   3 H :    0.137241   -0.036531
Sum of atomic charges         :    0.0000000

LOEWDIN ATOMIC CHARGES AND SPIN POPULATIONS
-------------------------------------------
   0 C :   -0.175877    0.920569
   1 H :    0.045972    0.030956
   2 H :    0.071346    0.022143
   3 H :    0.058559    0.026332

  Mayer bond orders larger than 0.100000
B(  0-C ,  1-H ) :   0.9733 B(  0-C ,  2-H ) :   0.9718 B(  0-C ,  3-H ) :   0.9744

FINAL SINGLE POINT ENERGY       -39.825380663066

DIPOLE MOMENT
-------------
                                X             Y             Z
Electronic contribution:      0.07296      -0.03913      -0.02252
Nuclear contribution   :     -0.10663       0.03575       0.01744
                        -----------------------------------------
Total Dipole Moment    :     -0.03367      -0.00338      -0.00508
                        -----------------------------------------
Magnitude (a.u.)       :      0.03422
Magnitude (Debye)      :      0.08697

Rotational constants in cm-1:     9.787896     8.389142     4.526640
Rotational constants in MHz : 293433.753437 251500.146345 135705.260415

                             ****ORCA TERMINATED NORMALLY****
TOTAL RUN TIME: 0 days 0 hours 0 minutes 22 seconds 994 msec
