                         Program Version 5.0.3 -  RELEASE  -
|  1> !B3LYP EPR-III Autoaux
|  2> !PAL4
|  3>
|  4> * xyz 0 2
|  5>  C      5.7504633006     -8.3292360833     -8.8964661850
|  6>  H      5.4770420498     -7.2186291610     -8.8247955662
|  7>  H      5.6357558386     -9.0373774447     -8.1641059220
|  8>  H      6.4289351609     -8.5798377957     -9.6877129145
|  9> *
| 10>
| 11> %EPRNMR
| 12>         GTENSOR   TRUE
| 13>         NUCLEI    = ALL H {AISO, ADIP, AORB}
| 14>         NUCLEI    = ALL C {AISO, ADIP, AORB}
| 15> END
| 16>
| 17>
| 18>                          ****END OF INPUT****

CARTESIAN COORDINATES (ANGSTROEM)
---------------------------------
  C      5.750463   -8.329236   -8.896466
  H      5.477042   -7.218629   -8.824796
  H      5.635756   -9.037377   -8.164106
  H      6.428935   -8.579838   -9.687713

 Total Charge           Charge          ....    0
 Multiplicity           Mult            ....    2
 Number of Electrons    NEL             ....    9
 Basis Dimension        Dim             ....   73

ORBITAL ENERGIES
----------------
                 SPIN UP ORBITALS
  NO   OCC          E(Eh)            E(eV)
   0   1.0000     -10.184501      -277.1344
   1   1.0000      -0.689511       -18.7626
   2   1.0000      -0.434210       -11.8154
   3   1.0000      -0.408824       -11.1247
   4   1.0000      -0.237144        -6.4530
   5   0.0000       0.000683         0.0186
   6   0.0000       0.035578         0.9681
   7   0.0000       0.038113         1.0371
   8   0.0000       0.047415         1.2902
   9   0.0000       0.082505         2.2451

                 SPIN DOWN ORBITALS
  NO   OCC          E(Eh)            E(eV)
   0   1.0000     -10.169997      -276.7397
   1   1.0000      -0.650523       -17.7016
   2   1.0000      -0.424460       -11.5502
   3   1.0000      -0.399245       -10.8640
   4   0.0000      -0.078635        -2.1398
   5   0.0000       0.003766         0.1025
   6   0.0000       0.035276         0.9599
   7   0.0000       0.037742         1.0270
   8   0.0000       0.060571         1.6482

MULLIKEN ATOMIC CHARGES AND SPIN POPULATIONS
--------------------------------------------
   0 C :   -0.425108    1.099341
   1 H :    0.139978   -0.036901
   2 H :    0.149137   -0.029267
   3 H :    0.135993   -0.033172
Sum of atomic charges         :   -0.0000000

LOEWDIN ATOMIC CHARGES AND SPIN POPULATIONS
-------------------------------------------
   0 C :   -0.147045    0.906688
   1 H :    0.079909    0.020617
   2 H :    0.021845    0.040256
   3 H :    0.045292    0.032439

  Mayer bond orders larger than 0.100000
B(  0-C ,  1-H ) :   0.9766 B(  0-C ,  2-H ) :   0.9777 B(  0-C ,  3-H ) :   0.9789

FINAL SINGLE POINT ENERGY       -39.822515186231

DIPOLE MOMENT
-------------
                                X             Y             Z
Electronic contribution:     -0.14274      -0.10439       0.02070
Nuclear contribution   :      0.21761       0.11382       0.00958
                        -----------------------------------------
Total Dipole Moment    :      0.07486       0.00943       0.03028
                        -----------------------------------------
Magnitude (a.u.)       :      0.08130
Magnitude (Debye)      :      0.20666

Rotational constants in cm-1:    10.522857     8.627310     4.799026
Rotational constants in MHz : 315467.317038 258640.260633 143871.186955

                             ****ORCA TERMINATED NORMALLY****
TOTAL RUN TIME: 0 days 0 hours 0 minutes 32 seconds 815 msec
