                         Program Version 5.0.3 -  RELEASE  -
|  1> !B3LYP EPR-III Autoaux
|  2> !PAL4
|  3>
|  4> * xyz 0 2
|  5>  C    -17.9428767743    -35.2071068893    -15.0202136414
|  6>  H    -17.0021751686    -34.6782571751    -15.2431878634
|  7>  H    -18.8772545305    -34.9107824567    -14.4670196330
|  8>  H    -17.9478143218    -36.1894309294    -15.5235688506
|  9> *
| 10>
| 11> %EPRNMR
| 12>         GTENSOR   TRUE
| 13>         NUCLEI    = ALL H {AISO, ADIP, AORB}
| 14>         NUCLEI    = ALL C {AISO, ADIP, AORB}
| 15> END
| 16>
| 17>
| 18>                          ****END OF INPUT****

CARTESIAN COORDINATES (ANGSTROEM)
---------------------------------
  C    -17.942877  -35.207107  -15.020214
  H    -17.002175  -34.678257  -15.243188
  H    -18.877255  -34.910782  -14.467020
  H    -17.947814  -36.189431  -15.523569

 Total Charge           Charge          ....    0
 Multiplicity           Mult            ....    2
 Number of Electrons    NEL             ....    9
 Basis Dimension        Dim             ....   73

ORBITAL ENERGIES
----------------
                 SPIN UP ORBITALS
  NO   OCC          E(Eh)            E(eV)
   0   1.0000     -10.193295      -277.3737
   1   1.0000      -0.680376       -18.5140
   2   1.0000      -0.432038       -11.7564
   3   1.0000      -0.398779       -10.8513
   4   1.0000      -0.235075        -6.3967
   5   0.0000      -0.000374        -0.0102
   6   0.0000       0.034373         0.9353
   7   0.0000       0.038723         1.0537
   8   0.0000       0.047320         1.2876
   9   0.0000       0.076737         2.0881

                 SPIN DOWN ORBITALS
  NO   OCC          E(Eh)            E(eV)
   0   1.0000     -10.178674      -276.9758
   1   1.0000      -0.640730       -17.4352
   2   1.0000      -0.423229       -11.5166
   3   1.0000      -0.389127       -10.5887
   4   0.0000      -0.077190        -2.1004
   5   0.0000       0.003107         0.0846
   6   0.0000       0.034118         0.9284
   7   0.0000       0.038348         1.0435
   8   0.0000       0.060650         1.6504

MULLIKEN ATOMIC CHARGES AND SPIN POPULATIONS
--------------------------------------------
   0 C :   -0.431681    1.110228
   1 H :    0.147777   -0.036562
   2 H :    0.151705   -0.036886
   3 H :    0.132200   -0.036780
Sum of atomic charges         :    0.0000000

LOEWDIN ATOMIC CHARGES AND SPIN POPULATIONS
-------------------------------------------
   0 C :   -0.178718    0.921144
   1 H :    0.056718    0.027489
   2 H :    0.068514    0.023516
   3 H :    0.053486    0.027851

  Mayer bond orders larger than 0.100000
B(  0-C ,  1-H ) :   0.9732 B(  0-C ,  2-H ) :   0.9710 B(  0-C ,  3-H ) :   0.9757

FINAL SINGLE POINT ENERGY       -39.822924159530

DIPOLE MOMENT
-------------
                                X             Y             Z
Electronic contribution:     -0.00674       0.10757       0.10071
Nuclear contribution   :      0.00104      -0.11778      -0.12976
                        -----------------------------------------
Total Dipole Moment    :     -0.00570      -0.01021      -0.02905
                        -----------------------------------------
Magnitude (a.u.)       :      0.03131
Magnitude (Debye)      :      0.07959

Rotational constants in cm-1:    10.539520     7.922918     4.527056
Rotational constants in MHz : 315966.853903 237523.099278 135717.716116

                             ****ORCA TERMINATED NORMALLY****
TOTAL RUN TIME: 0 days 0 hours 0 minutes 20 seconds 398 msec
