                         Program Version 5.0.3 -  RELEASE  -
|  1> !B3LYP EPR-III Autoaux
|  2> !PAL4
|  3>
|  4> * xyz 0 2
|  5>  C    -47.0459887010    -67.9122575264    -22.4238701787
|  6>  H    -47.8002488720    -68.6810819481    -22.3848760518
|  7>  H    -45.9377515644    -68.0013540573    -22.5209437194
|  8>  H    -47.3327095891    -66.8756960277    -22.2951163509
|  9> *
| 10>
| 11> %EPRNMR
| 12>         GTENSOR   TRUE
| 13>         NUCLEI    = ALL H {AISO, ADIP, AORB}
| 14>         NUCLEI    = ALL C {AISO, ADIP, AORB}
| 15> END
| 16>
| 17>
| 18>                          ****END OF INPUT****

CARTESIAN COORDINATES (ANGSTROEM)
---------------------------------
  C    -47.045989  -67.912258  -22.423870
  H    -47.800249  -68.681082  -22.384876
  H    -45.937752  -68.001354  -22.520944
  H    -47.332710  -66.875696  -22.295116

 Total Charge           Charge          ....    0
 Multiplicity           Mult            ....    2
 Number of Electrons    NEL             ....    9
 Basis Dimension        Dim             ....   73

ORBITAL ENERGIES
----------------
                 SPIN UP ORBITALS
  NO   OCC          E(Eh)            E(eV)
   0   1.0000     -10.187903      -277.2269
   1   1.0000      -0.684885       -18.6367
   2   1.0000      -0.435639       -11.8543
   3   1.0000      -0.403731       -10.9861
   4   1.0000      -0.234934        -6.3929
   5   0.0000       0.000474         0.0129
   6   0.0000       0.034801         0.9470
   7   0.0000       0.038501         1.0477
   8   0.0000       0.047420         1.2904
   9   0.0000       0.082009         2.2316

                 SPIN DOWN ORBITALS
  NO   OCC          E(Eh)            E(eV)
   0   1.0000     -10.173396      -276.8322
   1   1.0000      -0.645375       -17.5615
   2   1.0000      -0.426510       -11.6059
   3   1.0000      -0.394112       -10.7243
   4   0.0000      -0.077322        -2.1041
   5   0.0000       0.003733         0.1016
   6   0.0000       0.034484         0.9384
   7   0.0000       0.038104         1.0369
   8   0.0000       0.060705         1.6519

MULLIKEN ATOMIC CHARGES AND SPIN POPULATIONS
--------------------------------------------
   0 C :   -0.429676    1.106183
   1 H :    0.151226   -0.033335
   2 H :    0.142815   -0.037457
   3 H :    0.135635   -0.035392
Sum of atomic charges         :   -0.0000000

LOEWDIN ATOMIC CHARGES AND SPIN POPULATIONS
-------------------------------------------
   0 C :   -0.161560    0.912958
   1 H :    0.048483    0.031151
   2 H :    0.065350    0.025053
   3 H :    0.047727    0.030838

  Mayer bond orders larger than 0.100000
B(  0-C ,  1-H ) :   0.9748 B(  0-C ,  2-H ) :   0.9759 B(  0-C ,  3-H ) :   0.9774

FINAL SINGLE POINT ENERGY       -39.825431566249

DIPOLE MOMENT
-------------
                                X             Y             Z
Electronic contribution:     -0.05153      -0.11654      -0.03352
Nuclear contribution   :      0.05041       0.13389       0.05297
                        -----------------------------------------
Total Dipole Moment    :     -0.00112       0.01734       0.01945
                        -----------------------------------------
Magnitude (a.u.)       :      0.02608
Magnitude (Debye)      :      0.06629

Rotational constants in cm-1:    10.537414     8.397570     4.676072
Rotational constants in MHz : 315903.713019 251752.813629 140185.111546

                             ****ORCA TERMINATED NORMALLY****
TOTAL RUN TIME: 0 days 0 hours 0 minutes 20 seconds 350 msec
