                         Program Version 5.0.3 -  RELEASE  -
|  1> !B3LYP EPR-III Autoaux
|  2> !PAL4
|  3>
|  4> * xyz 0 2
|  5>  C    -41.5293458429    -61.7318747434    -21.0317311592
|  6>  H    -40.8803289241    -62.5940766808    -21.0169854091
|  7>  H    -40.9656755021    -60.7603089206    -20.9915786486
|  8>  H    -42.5992508524    -61.7755217061    -21.1148734818
|  9> *
| 10>
| 11> %EPRNMR
| 12>         GTENSOR   TRUE
| 13>         NUCLEI    = ALL H {AISO, ADIP, AORB}
| 14>         NUCLEI    = ALL C {AISO, ADIP, AORB}
| 15> END
| 16>
| 17>
| 18>                          ****END OF INPUT****

CARTESIAN COORDINATES (ANGSTROEM)
---------------------------------
  C    -41.529346  -61.731875  -21.031731
  H    -40.880329  -62.594077  -21.016985
  H    -40.965676  -60.760309  -20.991579
  H    -42.599251  -61.775522  -21.114873

 Total Charge           Charge          ....    0
 Multiplicity           Mult            ....    2
 Number of Electrons    NEL             ....    9
 Basis Dimension        Dim             ....   73

ORBITAL ENERGIES
----------------
                 SPIN UP ORBITALS
  NO   OCC          E(Eh)            E(eV)
   0   1.0000     -10.187920      -277.2274
   1   1.0000      -0.684520       -18.6267
   2   1.0000      -0.433357       -11.7922
   3   1.0000      -0.406922       -11.0729
   4   1.0000      -0.234850        -6.3906
   5   0.0000       0.000572         0.0156
   6   0.0000       0.035410         0.9635
   7   0.0000       0.037978         1.0334
   8   0.0000       0.047427         1.2905
   9   0.0000       0.086453         2.3525

                 SPIN DOWN ORBITALS
  NO   OCC          E(Eh)            E(eV)
   0   1.0000     -10.173416      -276.8327
   1   1.0000      -0.644922       -17.5492
   2   1.0000      -0.424036       -11.5386
   3   1.0000      -0.397576       -10.8186
   4   0.0000      -0.077260        -2.1023
   5   0.0000       0.003824         0.1041
   6   0.0000       0.035065         0.9542
   7   0.0000       0.037605         1.0233
   8   0.0000       0.060717         1.6522

MULLIKEN ATOMIC CHARGES AND SPIN POPULATIONS
--------------------------------------------
   0 C :   -0.427517    1.105584
   1 H :    0.142162   -0.034728
   2 H :    0.136210   -0.037682
   3 H :    0.149144   -0.033174
Sum of atomic charges         :    0.0000000

LOEWDIN ATOMIC CHARGES AND SPIN POPULATIONS
-------------------------------------------
   0 C :   -0.160079    0.912792
   1 H :    0.047102    0.031234
   2 H :    0.067037    0.024101
   3 H :    0.045941    0.031873

  Mayer bond orders larger than 0.100000
B(  0-C ,  1-H ) :   0.9762 B(  0-C ,  2-H ) :   0.9766 B(  0-C ,  3-H ) :   0.9750

FINAL SINGLE POINT ENERGY       -39.826702471738

DIPOLE MOMENT
-------------
                                X             Y             Z
Electronic contribution:     -0.09963      -0.05310       0.01077
Nuclear contribution   :      0.10701       0.04925      -0.02117
                        -----------------------------------------
Total Dipole Moment    :      0.00738      -0.00385      -0.01040
                        -----------------------------------------
Magnitude (a.u.)       :      0.01332
Magnitude (Debye)      :      0.03385

Rotational constants in cm-1:     9.933732     8.817035     4.672095
Rotational constants in MHz : 297805.806524 264328.050252 140065.874434

                             ****ORCA TERMINATED NORMALLY****
TOTAL RUN TIME: 0 days 0 hours 0 minutes 19 seconds 570 msec
