                         Program Version 5.0.3 -  RELEASE  -
|  1> !B3LYP EPR-III Autoaux
|  2> !PAL4
|  3>
|  4> * xyz 0 2
|  5>  C    -90.2676174871   -119.0843538886    -32.7015082468
|  6>  H    -91.3101618147   -119.3431054761    -32.7704045945
|  7>  H    -89.5864498308   -119.9106583121    -32.7400897582
|  8>  H    -89.9993416843   -118.1133468011    -32.6063443626
|  9> *
| 10>
| 11> %EPRNMR
| 12>         GTENSOR   TRUE
| 13>         NUCLEI    = ALL H {AISO, ADIP, AORB}
| 14>         NUCLEI    = ALL C {AISO, ADIP, AORB}
| 15> END
| 16>
| 17>
| 18>                          ****END OF INPUT****

CARTESIAN COORDINATES (ANGSTROEM)
---------------------------------
  C    -90.267617  -119.084354  -32.701508
  H    -91.310162  -119.343105  -32.770405
  H    -89.586450  -119.910658  -32.740090
  H    -89.999342  -118.113347  -32.606344

 Total Charge           Charge          ....    0
 Multiplicity           Mult            ....    2
 Number of Electrons    NEL             ....    9
 Basis Dimension        Dim             ....   73

ORBITAL ENERGIES
----------------
                 SPIN UP ORBITALS
  NO   OCC          E(Eh)            E(eV)
   0   1.0000     -10.175852      -276.8990
   1   1.0000      -0.695347       -18.9214
   2   1.0000      -0.441621       -12.0171
   3   1.0000      -0.416082       -11.3222
   4   1.0000      -0.234698        -6.3865
   5   0.0000       0.001764         0.0480
   6   0.0000       0.035740         0.9725
   7   0.0000       0.037888         1.0310
   8   0.0000       0.047620         1.2958
   9   0.0000       0.091656         2.4941

                 SPIN DOWN ORBITALS
  NO   OCC          E(Eh)            E(eV)
   0   1.0000     -10.161572      -276.5104
   1   1.0000      -0.656152       -17.8548
   2   1.0000      -0.431784       -11.7494
   3   1.0000      -0.406443       -11.0599
   4   0.0000      -0.077597        -2.1115
   5   0.0000       0.004674         0.1272
   6   0.0000       0.035324         0.9612
   7   0.0000       0.037442         1.0189
   8   0.0000       0.060802         1.6545

MULLIKEN ATOMIC CHARGES AND SPIN POPULATIONS
--------------------------------------------
   0 C :   -0.428215    1.098154
   1 H :    0.136571   -0.034532
   2 H :    0.141733   -0.033968
   3 H :    0.149910   -0.029654
Sum of atomic charges         :   -0.0000000

LOEWDIN ATOMIC CHARGES AND SPIN POPULATIONS
-------------------------------------------
   0 C :   -0.123645    0.895013
   1 H :    0.052831    0.031189
   2 H :    0.051369    0.031748
   3 H :    0.019444    0.042050

  Mayer bond orders larger than 0.100000
B(  0-C ,  1-H ) :   0.9817 B(  0-C ,  2-H ) :   0.9810 B(  0-C ,  3-H ) :   0.9808

FINAL SINGLE POINT ENERGY       -39.825063148626

DIPOLE MOMENT
-------------
                                X             Y             Z
Electronic contribution:      0.06501       0.08356       0.00932
Nuclear contribution   :     -0.06978      -0.08548      -0.00923
                        -----------------------------------------
Total Dipole Moment    :     -0.00477      -0.00192       0.00009
                        -----------------------------------------
Magnitude (a.u.)       :      0.00514
Magnitude (Debye)      :      0.01307

Rotational constants in cm-1:    10.342111     9.767403     5.023274
Rotational constants in MHz : 310048.688820 292819.362875 150593.975253

                             ****ORCA TERMINATED NORMALLY****
TOTAL RUN TIME: 0 days 0 hours 0 minutes 32 seconds 900 msec
