                         Program Version 5.0.3 -  RELEASE  -
|  1> !B3LYP EPR-III Autoaux
|  2> !PAL4
|  3>
|  4> * xyz 0 2
|  5>  C    -64.6541778799    -87.7670951135    -26.7672165202
|  6>  H    -63.6411924009    -87.3842537266    -26.7755694838
|  7>  H    -65.4323658926    -87.0557234577    -26.7167729253
|  8>  H    -64.6713012763    -88.8001586901    -26.8688763245
|  9> *
| 10>
| 11> %EPRNMR
| 12>         GTENSOR   TRUE
| 13>         NUCLEI    = ALL H {AISO, ADIP, AORB}
| 14>         NUCLEI    = ALL C {AISO, ADIP, AORB}
| 15> END
| 16>
| 17>
| 18>                          ****END OF INPUT****

CARTESIAN COORDINATES (ANGSTROEM)
---------------------------------
  C    -64.654178  -87.767095  -26.767217
  H    -63.641192  -87.384254  -26.775569
  H    -65.432366  -87.055723  -26.716773
  H    -64.671301  -88.800159  -26.868876

 Total Charge           Charge          ....    0
 Multiplicity           Mult            ....    2
 Number of Electrons    NEL             ....    9
 Basis Dimension        Dim             ....   73

ORBITAL ENERGIES
----------------
                 SPIN UP ORBITALS
  NO   OCC          E(Eh)            E(eV)
   0   1.0000     -10.177813      -276.9524
   1   1.0000      -0.694086       -18.8870
   2   1.0000      -0.446448       -12.1485
   3   1.0000      -0.407720       -11.0946
   4   1.0000      -0.234934        -6.3929
   5   0.0000       0.001560         0.0425
   6   0.0000       0.034819         0.9475
   7   0.0000       0.038650         1.0517
   8   0.0000       0.047579         1.2947
   9   0.0000       0.088056         2.3961

                 SPIN DOWN ORBITALS
  NO   OCC          E(Eh)            E(eV)
   0   1.0000     -10.163496      -276.5628
   1   1.0000      -0.654920       -17.8213
   2   1.0000      -0.436879       -11.8881
   3   1.0000      -0.397859       -10.8263
   4   0.0000      -0.077709        -2.1146
   5   0.0000       0.004503         0.1225
   6   0.0000       0.034436         0.9371
   7   0.0000       0.038195         1.0393
   8   0.0000       0.060762         1.6534

MULLIKEN ATOMIC CHARGES AND SPIN POPULATIONS
--------------------------------------------
   0 C :   -0.429666    1.099944
   1 H :    0.131164   -0.035340
   2 H :    0.150130   -0.032312
   3 H :    0.148372   -0.032292
Sum of atomic charges         :   -0.0000000

LOEWDIN ATOMIC CHARGES AND SPIN POPULATIONS
-------------------------------------------
   0 C :   -0.131047    0.897927
   1 H :    0.054008    0.030451
   2 H :    0.043426    0.034245
   3 H :    0.033613    0.037376

  Mayer bond orders larger than 0.100000
B(  0-C ,  1-H ) :   0.9821 B(  0-C ,  2-H ) :   0.9799 B(  0-C ,  3-H ) :   0.9808

FINAL SINGLE POINT ENERGY       -39.824558552696

DIPOLE MOMENT
-------------
                                X             Y             Z
Electronic contribution:     -0.14788      -0.04306       0.02705
Nuclear contribution   :      0.16314       0.04583      -0.04465
                        -----------------------------------------
Total Dipole Moment    :      0.01526       0.00277      -0.01760
                        -----------------------------------------
Magnitude (a.u.)       :      0.02346
Magnitude (Debye)      :      0.05963

Rotational constants in cm-1:    10.996890     9.082595     4.977081
Rotational constants in MHz : 329678.480377 272289.334827 149209.139120

                             ****ORCA TERMINATED NORMALLY****
TOTAL RUN TIME: 0 days 0 hours 0 minutes 18 seconds 374 msec
