                         Program Version 5.0.3 -  RELEASE  -
|  1> !B3LYP EPR-III Autoaux
|  2> !PAL4
|  3>
|  4> * xyz 0 2
|  5>  C    -32.8178405163    -51.9855955166    -18.8331349806
|  6>  H    -33.8408987275    -52.3661610201    -18.8856506644
|  7>  H    -31.9878999057    -52.7501681024    -19.0722021487
|  8>  H    -32.7685918121    -50.9222216736    -18.5477659066
|  9> *
| 10>
| 11> %EPRNMR
| 12>         GTENSOR   TRUE
| 13>         NUCLEI    = ALL H {AISO, ADIP, AORB}
| 14>         NUCLEI    = ALL C {AISO, ADIP, AORB}
| 15> END
| 16>
| 17>
| 18>                          ****END OF INPUT****

CARTESIAN COORDINATES (ANGSTROEM)
---------------------------------
  C    -32.817841  -51.985596  -18.833135
  H    -33.840899  -52.366161  -18.885651
  H    -31.987900  -52.750168  -19.072202
  H    -32.768592  -50.922222  -18.547766

 Total Charge           Charge          ....    0
 Multiplicity           Mult            ....    2
 Number of Electrons    NEL             ....    9
 Basis Dimension        Dim             ....   73

ORBITAL ENERGIES
----------------
                 SPIN UP ORBITALS
  NO   OCC          E(Eh)            E(eV)
   0   1.0000     -10.194722      -277.4125
   1   1.0000      -0.678978       -18.4759
   2   1.0000      -0.426140       -11.5959
   3   1.0000      -0.402650       -10.9567
   4   1.0000      -0.234855        -6.3907
   5   0.0000      -0.000703        -0.0191
   6   0.0000       0.034731         0.9451
   7   0.0000       0.038329         1.0430
   8   0.0000       0.047303         1.2872
   9   0.0000       0.075441         2.0528

                 SPIN DOWN ORBITALS
  NO   OCC          E(Eh)            E(eV)
   0   1.0000     -10.180070      -277.0138
   1   1.0000      -0.639223       -17.3941
   2   1.0000      -0.417427       -11.3588
   3   1.0000      -0.393040       -10.6951
   4   0.0000      -0.076960        -2.0942
   5   0.0000       0.002882         0.0784
   6   0.0000       0.034500         0.9388
   7   0.0000       0.037973         1.0333
   8   0.0000       0.060663         1.6507

MULLIKEN ATOMIC CHARGES AND SPIN POPULATIONS
--------------------------------------------
   0 C :   -0.431065    1.111401
   1 H :    0.135013   -0.035978
   2 H :    0.147801   -0.039337
   3 H :    0.148251   -0.036086
Sum of atomic charges         :    0.0000000

LOEWDIN ATOMIC CHARGES AND SPIN POPULATIONS
-------------------------------------------
   0 C :   -0.182203    0.923465
   1 H :    0.047662    0.029680
   2 H :    0.078687    0.019273
   3 H :    0.055854    0.027583

  Mayer bond orders larger than 0.100000
B(  0-C ,  1-H ) :   0.9743 B(  0-C ,  2-H ) :   0.9703 B(  0-C ,  3-H ) :   0.9720

FINAL SINGLE POINT ENERGY       -39.822388072885

DIPOLE MOMENT
-------------
                                X             Y             Z
Electronic contribution:      0.08532       0.05559       0.00665
Nuclear contribution   :     -0.10783      -0.06128      -0.00466
                        -----------------------------------------
Total Dipole Moment    :     -0.02250      -0.00569       0.00199
                        -----------------------------------------
Magnitude (a.u.)       :      0.02330
Magnitude (Debye)      :      0.05922

Rotational constants in cm-1:    10.368835     7.871261     4.474577
Rotational constants in MHz : 310849.853075 235974.464881 134144.437854

                             ****ORCA TERMINATED NORMALLY****
TOTAL RUN TIME: 0 days 0 hours 0 minutes 27 seconds 994 msec
