                         Program Version 5.0.3 -  RELEASE  -
|  1> !B3LYP EPR-III Autoaux
|  2> !PAL4
|  3>
|  4> * xyz 0 2
|  5>  C    -43.5840425686    -64.0592009554    -21.5516085777
|  6>  H    -43.0257900298    -63.2082927906    -21.5909016629
|  7>  H    -44.6387907396    -63.7047051193    -21.4311629376
|  8>  H    -43.1499288105    -64.9762501951    -21.7171980631
|  9> *
| 10>
| 11> %EPRNMR
| 12>         GTENSOR   TRUE
| 13>         NUCLEI    = ALL H {AISO, ADIP, AORB}
| 14>         NUCLEI    = ALL C {AISO, ADIP, AORB}
| 15> END
| 16>
| 17>
| 18>                          ****END OF INPUT****

CARTESIAN COORDINATES (ANGSTROEM)
---------------------------------
  C    -43.584043  -64.059201  -21.551609
  H    -43.025790  -63.208293  -21.590902
  H    -44.638791  -63.704705  -21.431163
  H    -43.149929  -64.976250  -21.717198

 Total Charge           Charge          ....    0
 Multiplicity           Mult            ....    2
 Number of Electrons    NEL             ....    9
 Basis Dimension        Dim             ....   73

ORBITAL ENERGIES
----------------
                 SPIN UP ORBITALS
  NO   OCC          E(Eh)            E(eV)
   0   1.0000     -10.176536      -276.9176
   1   1.0000      -0.697202       -18.9718
   2   1.0000      -0.452826       -12.3220
   3   1.0000      -0.400948       -10.9104
   4   1.0000      -0.235415        -6.4060
   5   0.0000       0.001282         0.0349
   6   0.0000       0.033848         0.9210
   7   0.0000       0.039415         1.0725
   8   0.0000       0.047558         1.2941
   9   0.0000       0.081427         2.2157

                 SPIN DOWN ORBITALS
  NO   OCC          E(Eh)            E(eV)
   0   1.0000     -10.162209      -276.5278
   1   1.0000      -0.658272       -17.9125
   2   1.0000      -0.443274       -12.0621
   3   1.0000      -0.390759       -10.6331
   4   0.0000      -0.078013        -2.1228
   5   0.0000       0.004233         0.1152
   6   0.0000       0.033512         0.9119
   7   0.0000       0.038957         1.0601
   8   0.0000       0.060707         1.6519

MULLIKEN ATOMIC CHARGES AND SPIN POPULATIONS
--------------------------------------------
   0 C :   -0.433861    1.100631
   1 H :    0.137794   -0.032385
   2 H :    0.140460   -0.038820
   3 H :    0.155607   -0.029426
Sum of atomic charges         :    0.0000000

LOEWDIN ATOMIC CHARGES AND SPIN POPULATIONS
-------------------------------------------
   0 C :   -0.126562    0.896059
   1 H :    0.021313    0.041291
   2 H :    0.074798    0.023850
   3 H :    0.030451    0.038800

  Mayer bond orders larger than 0.100000
B(  0-C ,  1-H ) :   0.9815 B(  0-C ,  2-H ) :   0.9819 B(  0-C ,  3-H ) :   0.9812

FINAL SINGLE POINT ENERGY       -39.817011513778

DIPOLE MOMENT
-------------
                                X             Y             Z
Electronic contribution:      0.06359      -0.17797       0.03040
Nuclear contribution   :     -0.04675       0.21612      -0.06328
                        -----------------------------------------
Total Dipole Moment    :      0.01684       0.03815      -0.03289
                        -----------------------------------------
Magnitude (a.u.)       :      0.05311
Magnitude (Debye)      :      0.13499

Rotational constants in cm-1:    12.328917     8.414989     5.011608
Rotational constants in MHz : 369611.629441 252275.027515 150244.218833

                             ****ORCA TERMINATED NORMALLY****
TOTAL RUN TIME: 0 days 0 hours 0 minutes 19 seconds 490 msec
