                         Program Version 5.0.3 -  RELEASE  -
|  1> !B3LYP EPR-III Autoaux
|  2> !PAL4
|  3>
|  4> * xyz 0 2
|  5>  C     -4.3711638562    -19.8662888201    -11.5193029556
|  6>  H     -4.9517074962    -20.0984806651    -10.6795996484
|  7>  H     -3.8309686087    -20.6538842921    -11.9455532430
|  8>  H     -4.0671393368    -18.8821171259    -11.8553545003
|  9> *
| 10>
| 11> %EPRNMR
| 12>         GTENSOR   TRUE
| 13>         NUCLEI    = ALL H {AISO, ADIP, AORB}
| 14>         NUCLEI    = ALL C {AISO, ADIP, AORB}
| 15> END
| 16>
| 17>
| 18>                          ****END OF INPUT****

CARTESIAN COORDINATES (ANGSTROEM)
---------------------------------
  C     -4.371164  -19.866289  -11.519303
  H     -4.951707  -20.098481  -10.679600
  H     -3.830969  -20.653884  -11.945553
  H     -4.067139  -18.882117  -11.855355

 Total Charge           Charge          ....    0
 Multiplicity           Mult            ....    2
 Number of Electrons    NEL             ....    9
 Basis Dimension        Dim             ....   73

ORBITAL ENERGIES
----------------
                 SPIN UP ORBITALS
  NO   OCC          E(Eh)            E(eV)
   0   1.0000     -10.177753      -276.9507
   1   1.0000      -0.694264       -18.8919
   2   1.0000      -0.437000       -11.8914
   3   1.0000      -0.416090       -11.3224
   4   1.0000      -0.236414        -6.4331
   5   0.0000       0.001510         0.0411
   6   0.0000       0.035727         0.9722
   7   0.0000       0.038151         1.0382
   8   0.0000       0.047568         1.2944
   9   0.0000       0.088725         2.4143

                 SPIN DOWN ORBITALS
  NO   OCC          E(Eh)            E(eV)
   0   1.0000     -10.163398      -276.5601
   1   1.0000      -0.655405       -17.8345
   2   1.0000      -0.427394       -11.6300
   3   1.0000      -0.406058       -11.0494
   4   0.0000      -0.078477        -2.1355
   5   0.0000       0.004400         0.1197
   6   0.0000       0.035347         0.9618
   7   0.0000       0.037712         1.0262
   8   0.0000       0.060703         1.6518

MULLIKEN ATOMIC CHARGES AND SPIN POPULATIONS
--------------------------------------------
   0 C :   -0.425918    1.096329
   1 H :    0.146526   -0.030853
   2 H :    0.136941   -0.032015
   3 H :    0.142451   -0.033461
Sum of atomic charges         :   -0.0000000

LOEWDIN ATOMIC CHARGES AND SPIN POPULATIONS
-------------------------------------------
   0 C :   -0.130677    0.897594
   1 H :    0.038246    0.035986
   2 H :    0.035913    0.036478
   3 H :    0.056519    0.029942

  Mayer bond orders larger than 0.100000
B(  0-C ,  1-H ) :   0.9804 B(  0-C ,  2-H ) :   0.9812 B(  0-C ,  3-H ) :   0.9803

FINAL SINGLE POINT ENERGY       -39.825632754489

DIPOLE MOMENT
-------------
                                X             Y             Z
Electronic contribution:     -0.13589       0.01796      -0.01980
Nuclear contribution   :      0.19762      -0.02669       0.05801
                        -----------------------------------------
Total Dipole Moment    :      0.06173      -0.00874       0.03821
                        -----------------------------------------
Magnitude (a.u.)       :      0.07312
Magnitude (Debye)      :      0.18585

Rotational constants in cm-1:    10.891655     9.091242     5.003712
Rotational constants in MHz : 326523.607265 272548.567373 150007.520260

                             ****ORCA TERMINATED NORMALLY****
TOTAL RUN TIME: 0 days 0 hours 0 minutes 20 seconds 235 msec
