                         Program Version 5.0.3 -  RELEASE  -
|  1> !B3LYP EPR-III Autoaux
|  2> !PAL4
|  3>
|  4> * xyz 0 2
|  5>  C    -27.0733418277    -45.5021594377    -17.3871854457
|  6>  H    -27.5617233968    -46.5560918604    -17.3460390058
|  7>  H    -26.0707128449    -45.4654460725    -17.5844314518
|  8>  H    -27.5318719100    -44.5660553791    -17.0892484879
|  9> *
| 10>
| 11> %EPRNMR
| 12>         GTENSOR   TRUE
| 13>         NUCLEI    = ALL H {AISO, ADIP, AORB}
| 14>         NUCLEI    = ALL C {AISO, ADIP, AORB}
| 15> END
| 16>
| 17>
| 18>                          ****END OF INPUT****

CARTESIAN COORDINATES (ANGSTROEM)
---------------------------------
  C    -27.073342  -45.502159  -17.387185
  H    -27.561723  -46.556092  -17.346039
  H    -26.070713  -45.465446  -17.584431
  H    -27.531872  -44.566055  -17.089248

 Total Charge           Charge          ....    0
 Multiplicity           Mult            ....    2
 Number of Electrons    NEL             ....    9
 Basis Dimension        Dim             ....   73

ORBITAL ENERGIES
----------------
                 SPIN UP ORBITALS
  NO   OCC          E(Eh)            E(eV)
   0   1.0000     -10.186575      -277.1908
   1   1.0000      -0.687473       -18.7071
   2   1.0000      -0.425069       -11.5667
   3   1.0000      -0.414869       -11.2892
   4   1.0000      -0.235515        -6.4087
   5   0.0000       0.000241         0.0066
   6   0.0000       0.035829         0.9750
   7   0.0000       0.037568         1.0223
   8   0.0000       0.047414         1.2902
   9   0.0000       0.079274         2.1572

                 SPIN DOWN ORBITALS
  NO   OCC          E(Eh)            E(eV)
   0   1.0000     -10.172057      -276.7958
   1   1.0000      -0.648178       -17.6378
   2   1.0000      -0.415518       -11.3068
   3   1.0000      -0.405384       -11.0311
   4   0.0000      -0.077602        -2.1117
   5   0.0000       0.003514         0.0956
   6   0.0000       0.035552         0.9674
   7   0.0000       0.037203         1.0123
   8   0.0000       0.060664         1.6508

MULLIKEN ATOMIC CHARGES AND SPIN POPULATIONS
--------------------------------------------
   0 C :   -0.428257    1.104376
   1 H :    0.140330   -0.039244
   2 H :    0.143501   -0.031089
   3 H :    0.144426   -0.034044
Sum of atomic charges         :    0.0000000

LOEWDIN ATOMIC CHARGES AND SPIN POPULATIONS
-------------------------------------------
   0 C :   -0.153810    0.910612
   1 H :    0.085126    0.017950
   2 H :    0.016975    0.041146
   3 H :    0.051709    0.030292

  Mayer bond orders larger than 0.100000
B(  0-C ,  1-H ) :   0.9750 B(  0-C ,  2-H ) :   0.9765 B(  0-C ,  3-H ) :   0.9766

FINAL SINGLE POINT ENERGY       -39.821251619443

DIPOLE MOMENT
-------------
                                X             Y             Z
Electronic contribution:     -0.00675       0.06269      -0.06820
Nuclear contribution   :      0.04176      -0.06079       0.10630
                        -----------------------------------------
Total Dipole Moment    :      0.03501       0.00190       0.03810
                        -----------------------------------------
Magnitude (a.u.)       :      0.05178
Magnitude (Debye)      :      0.13161

Rotational constants in cm-1:    10.847759     8.218242     4.693800
Rotational constants in MHz : 325207.625763 246376.695459 140716.580368

                             ****ORCA TERMINATED NORMALLY****
TOTAL RUN TIME: 0 days 0 hours 0 minutes 27 seconds 565 msec
