                         Program Version 5.0.3 -  RELEASE  -
|  1> !B3LYP EPR-III Autoaux
|  2> !PAL4
|  3>
|  4> * xyz 0 2
|  5>  C     -6.7378602981    -22.5893765275    -12.1518980146
|  6>  H     -6.9994128325    -21.6180394594    -12.6152379587
|  7>  H     -7.5012526062    -23.0094438701    -11.4218631265
|  8>  H     -5.7748146053    -23.0835093365    -12.1748473433
|  9> *
| 10>
| 11> %EPRNMR
| 12>         GTENSOR   TRUE
| 13>         NUCLEI    = ALL H {AISO, ADIP, AORB}
| 14>         NUCLEI    = ALL C {AISO, ADIP, AORB}
| 15> END
| 16>
| 17>
| 18>                          ****END OF INPUT****

CARTESIAN COORDINATES (ANGSTROEM)
---------------------------------
  C     -6.737860  -22.589377  -12.151898
  H     -6.999413  -21.618039  -12.615238
  H     -7.501253  -23.009444  -11.421863
  H     -5.774815  -23.083509  -12.174847

 Total Charge           Charge          ....    0
 Multiplicity           Mult            ....    2
 Number of Electrons    NEL             ....    9
 Basis Dimension        Dim             ....   73

ORBITAL ENERGIES
----------------
                 SPIN UP ORBITALS
  NO   OCC          E(Eh)            E(eV)
   0   1.0000     -10.193048      -277.3669
   1   1.0000      -0.680332       -18.5128
   2   1.0000      -0.429564       -11.6890
   3   1.0000      -0.403055       -10.9677
   4   1.0000      -0.235958        -6.4207
   5   0.0000      -0.000093        -0.0025
   6   0.0000       0.035424         0.9639
   7   0.0000       0.037997         1.0340
   8   0.0000       0.047306         1.2873
   9   0.0000       0.083871         2.2823

                 SPIN DOWN ORBITALS
  NO   OCC          E(Eh)            E(eV)
   0   1.0000     -10.178422      -276.9689
   1   1.0000      -0.640711       -17.4346
   2   1.0000      -0.420332       -11.4378
   3   1.0000      -0.393823       -10.7165
   4   0.0000      -0.077691        -2.1141
   5   0.0000       0.003291         0.0896
   6   0.0000       0.035117         0.9556
   7   0.0000       0.037673         1.0251
   8   0.0000       0.060594         1.6489

MULLIKEN ATOMIC CHARGES AND SPIN POPULATIONS
--------------------------------------------
   0 C :   -0.425963    1.106483
   1 H :    0.145567   -0.035214
   2 H :    0.132928   -0.037766
   3 H :    0.147467   -0.033504
Sum of atomic charges         :    0.0000000

LOEWDIN ATOMIC CHARGES AND SPIN POPULATIONS
-------------------------------------------
   0 C :   -0.174325    0.919760
   1 H :    0.058703    0.026807
   2 H :    0.068727    0.022558
   3 H :    0.046895    0.030874

  Mayer bond orders larger than 0.100000
B(  0-C ,  1-H ) :   0.9729 B(  0-C ,  2-H ) :   0.9752 B(  0-C ,  3-H ) :   0.9730

FINAL SINGLE POINT ENERGY       -39.825339655606

DIPOLE MOMENT
-------------
                                X             Y             Z
Electronic contribution:      0.06391      -0.01663      -0.13914
Nuclear contribution   :     -0.04639       0.04282       0.18268
                        -----------------------------------------
Total Dipole Moment    :      0.01751       0.02619       0.04354
                        -----------------------------------------
Magnitude (a.u.)       :      0.05374
Magnitude (Debye)      :      0.13660

Rotational constants in cm-1:     9.479749     8.654347     4.549069
Rotational constants in MHz : 284195.724966 259450.806291 136377.656078

                             ****ORCA TERMINATED NORMALLY****
TOTAL RUN TIME: 0 days 0 hours 0 minutes 24 seconds 857 msec
