                         Program Version 5.0.3 -  RELEASE  -
|  1> !B3LYP EPR-III Autoaux
|  2> !PAL4
|  3>
|  4> * xyz 0 2
|  5>  C    -77.0741738524   -102.8131428775    -29.6645817393
|  6>  H    -77.0464687383   -103.9264279358    -29.7704751295
|  7>  H    -76.1952947092   -102.1744504739    -29.5760215403
|  8>  H    -78.1354791191   -102.3806401323    -29.6761758586
|  9> *
| 10>
| 11> %EPRNMR
| 12>         GTENSOR   TRUE
| 13>         NUCLEI    = ALL H {AISO, ADIP, AORB}
| 14>         NUCLEI    = ALL C {AISO, ADIP, AORB}
| 15> END
| 16>
| 17>
| 18>                          ****END OF INPUT****

CARTESIAN COORDINATES (ANGSTROEM)
---------------------------------
  C    -77.074174  -102.813143  -29.664582
  H    -77.046469  -103.926428  -29.770475
  H    -76.195295  -102.174450  -29.576022
  H    -78.135479  -102.380640  -29.676176

 Total Charge           Charge          ....    0
 Multiplicity           Mult            ....    2
 Number of Electrons    NEL             ....    9
 Basis Dimension        Dim             ....   73

ORBITAL ENERGIES
----------------
                 SPIN UP ORBITALS
  NO   OCC          E(Eh)            E(eV)
   0   1.0000     -10.195583      -277.4359
   1   1.0000      -0.677668       -18.4403
   2   1.0000      -0.427704       -11.6384
   3   1.0000      -0.401765       -10.9326
   4   1.0000      -0.234962        -6.3936
   5   0.0000      -0.000486        -0.0132
   6   0.0000       0.035321         0.9611
   7   0.0000       0.037867         1.0304
   8   0.0000       0.047290         1.2868
   9   0.0000       0.083454         2.2709

                 SPIN DOWN ORBITALS
  NO   OCC          E(Eh)            E(eV)
   0   1.0000     -10.180920      -277.0369
   1   1.0000      -0.637731       -17.3536
   2   1.0000      -0.418630       -11.3915
   3   1.0000      -0.392724       -10.6866
   4   0.0000      -0.077003        -2.0954
   5   0.0000       0.003068         0.0835
   6   0.0000       0.035027         0.9531
   7   0.0000       0.037563         1.0221
   8   0.0000       0.060653         1.6505

MULLIKEN ATOMIC CHARGES AND SPIN POPULATIONS
--------------------------------------------
   0 C :   -0.427693    1.110629
   1 H :    0.141782   -0.037236
   2 H :    0.149671   -0.034258
   3 H :    0.136240   -0.039135
Sum of atomic charges         :    0.0000000

LOEWDIN ATOMIC CHARGES AND SPIN POPULATIONS
-------------------------------------------
   0 C :   -0.182134    0.924199
   1 H :    0.061096    0.025159
   2 H :    0.049298    0.029658
   3 H :    0.071740    0.020984

  Mayer bond orders larger than 0.100000
B(  0-C ,  1-H ) :   0.9722 B(  0-C ,  2-H ) :   0.9710 B(  0-C ,  3-H ) :   0.9730

FINAL SINGLE POINT ENERGY       -39.824449766157

DIPOLE MOMENT
-------------
                                X             Y             Z
Electronic contribution:      0.11453       0.02841       0.01628
Nuclear contribution   :     -0.11596      -0.03155      -0.02168
                        -----------------------------------------
Total Dipole Moment    :     -0.00143      -0.00313      -0.00540
                        -----------------------------------------
Magnitude (a.u.)       :      0.00641
Magnitude (Debye)      :      0.01629

Rotational constants in cm-1:     9.327457     8.539171     4.458179
Rotational constants in MHz : 279630.131068 255997.901803 133652.829204

                             ****ORCA TERMINATED NORMALLY****
TOTAL RUN TIME: 0 days 0 hours 0 minutes 17 seconds 725 msec
