                         Program Version 5.0.3 -  RELEASE  -
|  1> !B3LYP EPR-III Autoaux
|  2> !PAL4
|  3>
|  4> * xyz 0 2
|  5>  C    -33.5196554268    -52.7614336410    -18.9996020979
|  6>  H    -34.0524907755    -53.7511845907    -19.0425714852
|  7>  H    -32.4668164834    -52.8534217977    -19.2500708009
|  8>  H    -34.1175705042    -51.8748635933    -18.8292010265
|  9> *
| 10>
| 11> %EPRNMR
| 12>         GTENSOR   TRUE
| 13>         NUCLEI    = ALL H {AISO, ADIP, AORB}
| 14>         NUCLEI    = ALL C {AISO, ADIP, AORB}
| 15> END
| 16>
| 17>
| 18>                          ****END OF INPUT****

CARTESIAN COORDINATES (ANGSTROEM)
---------------------------------
  C    -33.519655  -52.761434  -18.999602
  H    -34.052491  -53.751185  -19.042571
  H    -32.466816  -52.853422  -19.250071
  H    -34.117571  -51.874864  -18.829201

 Total Charge           Charge          ....    0
 Multiplicity           Mult            ....    2
 Number of Electrons    NEL             ....    9
 Basis Dimension        Dim             ....   73

ORBITAL ENERGIES
----------------
                 SPIN UP ORBITALS
  NO   OCC          E(Eh)            E(eV)
   0   1.0000     -10.189753      -277.2773
   1   1.0000      -0.683267       -18.5926
   2   1.0000      -0.435993       -11.8640
   3   1.0000      -0.401348       -10.9212
   4   1.0000      -0.235291        -6.4026
   5   0.0000       0.000336         0.0091
   6   0.0000       0.034882         0.9492
   7   0.0000       0.038434         1.0458
   8   0.0000       0.047378         1.2892
   9   0.0000       0.083540         2.2732

                 SPIN DOWN ORBITALS
  NO   OCC          E(Eh)            E(eV)
   0   1.0000     -10.175206      -276.8814
   1   1.0000      -0.643679       -17.5154
   2   1.0000      -0.426781       -11.6133
   3   1.0000      -0.391942       -10.6653
   4   0.0000      -0.077466        -2.1079
   5   0.0000       0.003627         0.0987
   6   0.0000       0.034561         0.9404
   7   0.0000       0.038065         1.0358
   8   0.0000       0.060662         1.6507

MULLIKEN ATOMIC CHARGES AND SPIN POPULATIONS
--------------------------------------------
   0 C :   -0.428276    1.106433
   1 H :    0.131363   -0.037724
   2 H :    0.146589   -0.034959
   3 H :    0.150324   -0.033750
Sum of atomic charges         :   -0.0000000

LOEWDIN ATOMIC CHARGES AND SPIN POPULATIONS
-------------------------------------------
   0 C :   -0.165681    0.915299
   1 H :    0.065296    0.024262
   2 H :    0.050629    0.029993
   3 H :    0.049756    0.030445

  Mayer bond orders larger than 0.100000
B(  0-C ,  1-H ) :   0.9771 B(  0-C ,  2-H ) :   0.9749 B(  0-C ,  3-H ) :   0.9741

FINAL SINGLE POINT ENERGY       -39.825496038125

DIPOLE MOMENT
-------------
                                X             Y             Z
Electronic contribution:      0.05163       0.14061       0.06028
Nuclear contribution   :     -0.05839      -0.14628      -0.09221
                        -----------------------------------------
Total Dipole Moment    :     -0.00676      -0.00567      -0.03194
                        -----------------------------------------
Magnitude (a.u.)       :      0.03313
Magnitude (Debye)      :      0.08422

Rotational constants in cm-1:    10.025471     8.581076     4.632459
Rotational constants in MHz : 300556.065589 257254.192595 138877.613022

                             ****ORCA TERMINATED NORMALLY****
TOTAL RUN TIME: 0 days 0 hours 0 minutes 18 seconds 637 msec
