                         Program Version 5.0.3 -  RELEASE  -
|  1> !B3LYP EPR-III Autoaux
|  2> !PAL4
|  3>
|  4> * xyz 0 2
|  5>  C    -10.8273895371    -27.2278411494    -13.2044366988
|  6>  H    -11.7251411046    -26.8432649566    -12.5053114618
|  7>  H    -10.8299869616    -28.2715631765    -13.1620717768
|  8>  H    -10.2358573255    -26.7103951413    -13.9375397601
|  9> *
| 10>
| 11> %EPRNMR
| 12>         GTENSOR   TRUE
| 13>         NUCLEI    = ALL H {AISO, ADIP, AORB}
| 14>         NUCLEI    = ALL C {AISO, ADIP, AORB}
| 15> END
| 16>
| 17>
| 18>                          ****END OF INPUT****

CARTESIAN COORDINATES (ANGSTROEM)
---------------------------------
  C    -10.827390  -27.227841  -13.204437
  H    -11.725141  -26.843265  -12.505311
  H    -10.829987  -28.271563  -13.162072
  H    -10.235857  -26.710395  -13.937540

 Total Charge           Charge          ....    0
 Multiplicity           Mult            ....    2
 Number of Electrons    NEL             ....    9
 Basis Dimension        Dim             ....   73

ORBITAL ENERGIES
----------------
                 SPIN UP ORBITALS
  NO   OCC          E(Eh)            E(eV)
   0   1.0000     -10.191899      -277.3357
   1   1.0000      -0.684078       -18.6147
   2   1.0000      -0.437710       -11.9107
   3   1.0000      -0.394065       -10.7231
   4   1.0000      -0.236577        -6.4376
   5   0.0000      -0.000871        -0.0237
   6   0.0000       0.034082         0.9274
   7   0.0000       0.038921         1.0591
   8   0.0000       0.047250         1.2857
   9   0.0000       0.072214         1.9650

                 SPIN DOWN ORBITALS
  NO   OCC          E(Eh)            E(eV)
   0   1.0000     -10.177245      -276.9369
   1   1.0000      -0.644697       -17.5431
   2   1.0000      -0.428386       -11.6570
   3   1.0000      -0.384571       -10.4647
   4   0.0000      -0.078063        -2.1242
   5   0.0000       0.002624         0.0714
   6   0.0000       0.033871         0.9217
   7   0.0000       0.038641         1.0515
   8   0.0000       0.060482         1.6458

MULLIKEN ATOMIC CHARGES AND SPIN POPULATIONS
--------------------------------------------
   0 C :   -0.429744    1.107471
   1 H :    0.135620   -0.042838
   2 H :    0.140702   -0.032883
   3 H :    0.153422   -0.031750
Sum of atomic charges         :    0.0000000

LOEWDIN ATOMIC CHARGES AND SPIN POPULATIONS
-------------------------------------------
   0 C :   -0.167661    0.918040
   1 H :    0.096175    0.012512
   2 H :    0.025641    0.037463
   3 H :    0.045845    0.031985

  Mayer bond orders larger than 0.100000
B(  0-C ,  1-H ) :   0.9746 B(  0-C ,  2-H ) :   0.9748 B(  0-C ,  3-H ) :   0.9733

FINAL SINGLE POINT ENERGY       -39.816016209879

DIPOLE MOMENT
-------------
                                X             Y             Z
Electronic contribution:      0.19777       0.06197      -0.05245
Nuclear contribution   :     -0.23145      -0.10620       0.00629
                        -----------------------------------------
Total Dipole Moment    :     -0.03368      -0.04423      -0.04616
                        -----------------------------------------
Magnitude (a.u.)       :      0.07226
Magnitude (Debye)      :      0.18368

Rotational constants in cm-1:    11.001348     7.693763     4.558848
Rotational constants in MHz : 329812.124887 230653.204145 136670.830491

                             ****ORCA TERMINATED NORMALLY****
TOTAL RUN TIME: 0 days 0 hours 0 minutes 20 seconds 589 msec
