                         Program Version 5.0.3 -  RELEASE  -
|  1> !B3LYP EPR-III Autoaux
|  2> !PAL4
|  3>
|  4> * xyz 0 2
|  5>  C    -47.7281509570    -68.6665731705    -22.5982403004
|  6>  H    -47.8811667001    -69.7271105090    -22.5758195202
|  7>  H    -46.7479284545    -68.2834344699    -22.5980393315
|  8>  H    -48.6449784907    -68.0886800300    -22.5236454202
|  9> *
| 10>
| 11> %EPRNMR
| 12>         GTENSOR   TRUE
| 13>         NUCLEI    = ALL H {AISO, ADIP, AORB}
| 14>         NUCLEI    = ALL C {AISO, ADIP, AORB}
| 15> END
| 16>
| 17>
| 18>                          ****END OF INPUT****

CARTESIAN COORDINATES (ANGSTROEM)
---------------------------------
  C    -47.728151  -68.666573  -22.598240
  H    -47.881167  -69.727111  -22.575820
  H    -46.747928  -68.283434  -22.598039
  H    -48.644978  -68.088680  -22.523645

 Total Charge           Charge          ....    0
 Multiplicity           Mult            ....    2
 Number of Electrons    NEL             ....    9
 Basis Dimension        Dim             ....   73

ORBITAL ENERGIES
----------------
                 SPIN UP ORBITALS
  NO   OCC          E(Eh)            E(eV)
   0   1.0000     -10.181164      -277.0435
   1   1.0000      -0.690471       -18.7887
   2   1.0000      -0.436429       -11.8758
   3   1.0000      -0.413202       -11.2438
   4   1.0000      -0.234930        -6.3928
   5   0.0000       0.001310         0.0356
   6   0.0000       0.035587         0.9684
   7   0.0000       0.037995         1.0339
   8   0.0000       0.047540         1.2936
   9   0.0000       0.088745         2.4149

                 SPIN DOWN ORBITALS
  NO   OCC          E(Eh)            E(eV)
   0   1.0000     -10.166787      -276.6523
   1   1.0000      -0.651182       -17.7196
   2   1.0000      -0.426941       -11.6176
   3   1.0000      -0.403518       -10.9803
   4   0.0000      -0.077547        -2.1102
   5   0.0000       0.004340         0.1181
   6   0.0000       0.035207         0.9580
   7   0.0000       0.037568         1.0223
   8   0.0000       0.060762         1.6534

MULLIKEN ATOMIC CHARGES AND SPIN POPULATIONS
--------------------------------------------
   0 C :   -0.427495    1.100948
   1 H :    0.137306   -0.034236
   2 H :    0.148276   -0.031844
   3 H :    0.141913   -0.034868
Sum of atomic charges         :   -0.0000000

LOEWDIN ATOMIC CHARGES AND SPIN POPULATIONS
-------------------------------------------
   0 C :   -0.140908    0.902901
   1 H :    0.046899    0.032292
   2 H :    0.038813    0.035184
   3 H :    0.055196    0.029623

  Mayer bond orders larger than 0.100000
B(  0-C ,  1-H ) :   0.9797 B(  0-C ,  2-H ) :   0.9784 B(  0-C ,  3-H ) :   0.9789

FINAL SINGLE POINT ENERGY       -39.827302469052

DIPOLE MOMENT
-------------
                                X             Y             Z
Electronic contribution:      0.06472       0.06390      -0.04567
Nuclear contribution   :     -0.06717      -0.07458       0.07286
                        -----------------------------------------
Total Dipole Moment    :     -0.00245      -0.01068       0.02719
                        -----------------------------------------
Magnitude (a.u.)       :      0.02931
Magnitude (Debye)      :      0.07451

Rotational constants in cm-1:    10.404957     9.140429     4.872713
Rotational constants in MHz : 311932.767218 274023.170627 146080.275115

                             ****ORCA TERMINATED NORMALLY****
TOTAL RUN TIME: 0 days 0 hours 0 minutes 23 seconds 538 msec
