                         Program Version 5.0.3 -  RELEASE  -
|  1> !B3LYP EPR-III Autoaux
|  2> !PAL4
|  3>
|  4> * xyz 0 2
|  5>  C    -87.9394533755   -116.1667823230    -32.2293993739
|  6>  H    -87.8278288103   -115.0894326754    -32.1279803041
|  7>  H    -88.9448832276   -116.5532595248    -32.3036161675
|  8>  H    -87.0288422006   -116.8539586725    -32.2399824779
|  9> *
| 10>
| 11> %EPRNMR
| 12>         GTENSOR   TRUE
| 13>         NUCLEI    = ALL H {AISO, ADIP, AORB}
| 14>         NUCLEI    = ALL C {AISO, ADIP, AORB}
| 15> END
| 16>
| 17>
| 18>                          ****END OF INPUT****

CARTESIAN COORDINATES (ANGSTROEM)
---------------------------------
  C    -87.939453  -116.166782  -32.229399
  H    -87.827829  -115.089433  -32.127980
  H    -88.944883  -116.553260  -32.303616
  H    -87.028842  -116.853959  -32.239982

 Total Charge           Charge          ....    0
 Multiplicity           Mult            ....    2
 Number of Electrons    NEL             ....    9
 Basis Dimension        Dim             ....   73

ORBITAL ENERGIES
----------------
                 SPIN UP ORBITALS
  NO   OCC          E(Eh)            E(eV)
   0   1.0000     -10.190819      -277.3063
   1   1.0000      -0.681824       -18.5534
   2   1.0000      -0.419281       -11.4092
   3   1.0000      -0.416535       -11.3345
   4   1.0000      -0.234737        -6.3875
   5   0.0000       0.000134         0.0037
   6   0.0000       0.036360         0.9894
   7   0.0000       0.037002         1.0069
   8   0.0000       0.047386         1.2894
   9   0.0000       0.083635         2.2758

                 SPIN DOWN ORBITALS
  NO   OCC          E(Eh)            E(eV)
   0   1.0000     -10.176256      -276.9100
   1   1.0000      -0.642123       -17.4731
   2   1.0000      -0.409894       -11.1538
   3   1.0000      -0.407443       -11.0871
   4   0.0000      -0.077043        -2.0965
   5   0.0000       0.003517         0.0957
   6   0.0000       0.036068         0.9815
   7   0.0000       0.036630         0.9968
   8   0.0000       0.060714         1.6521

MULLIKEN ATOMIC CHARGES AND SPIN POPULATIONS
--------------------------------------------
   0 C :   -0.426800    1.107404
   1 H :    0.141817   -0.034934
   2 H :    0.143108   -0.034347
   3 H :    0.141875   -0.038123
Sum of atomic charges         :    0.0000000

LOEWDIN ATOMIC CHARGES AND SPIN POPULATIONS
-------------------------------------------
   0 C :   -0.168691    0.917271
   1 H :    0.049383    0.030019
   2 H :    0.045538    0.031357
   3 H :    0.073770    0.021353

  Mayer bond orders larger than 0.100000
B(  0-C ,  1-H ) :   0.9746 B(  0-C ,  2-H ) :   0.9745 B(  0-C ,  3-H ) :   0.9733

FINAL SINGLE POINT ENERGY       -39.826380538643

DIPOLE MOMENT
-------------
                                X             Y             Z
Electronic contribution:     -0.02044       0.00259      -0.00809
Nuclear contribution   :      0.01260       0.00277       0.01246
                        -----------------------------------------
Total Dipole Moment    :     -0.00784       0.00536       0.00437
                        -----------------------------------------
Magnitude (a.u.)       :      0.01045
Magnitude (Debye)      :      0.02657

Rotational constants in cm-1:     9.775208     8.620954     4.581094
Rotational constants in MHz : 293053.351230 258449.713023 137337.756034

                             ****ORCA TERMINATED NORMALLY****
TOTAL RUN TIME: 0 days 0 hours 0 minutes 22 seconds 559 msec
