                         Program Version 5.0.3 -  RELEASE  -
|  1> !B3LYP EPR-III Autoaux
|  2> !PAL4
|  3>
|  4> * xyz 0 2
|  5>  C      2.5805287100    -11.9575185634     -9.7165868497
|  6>  H      3.5855559194    -12.3127740343     -9.5653907211
|  7>  H      2.5970930770    -11.1378713976    -10.4904340207
|  8>  H      1.6806887681    -12.1394005444     -9.1400735388
|  9> *
| 10>
| 11> %EPRNMR
| 12>         GTENSOR   TRUE
| 13>         NUCLEI    = ALL H {AISO, ADIP, AORB}
| 14>         NUCLEI    = ALL C {AISO, ADIP, AORB}
| 15> END
| 16>
| 17>
| 18>                          ****END OF INPUT****

CARTESIAN COORDINATES (ANGSTROEM)
---------------------------------
  C      2.580529  -11.957519   -9.716587
  H      3.585556  -12.312774   -9.565391
  H      2.597093  -11.137871  -10.490434
  H      1.680689  -12.139401   -9.140074

 Total Charge           Charge          ....    0
 Multiplicity           Mult            ....    2
 Number of Electrons    NEL             ....    9
 Basis Dimension        Dim             ....   73

ORBITAL ENERGIES
----------------
                 SPIN UP ORBITALS
  NO   OCC          E(Eh)            E(eV)
   0   1.0000     -10.189318      -277.2654
   1   1.0000      -0.684262       -18.6197
   2   1.0000      -0.438871       -11.9423
   3   1.0000      -0.398447       -10.8423
   4   1.0000      -0.236061        -6.4235
   5   0.0000       0.000336         0.0091
   6   0.0000       0.034619         0.9420
   7   0.0000       0.038760         1.0547
   8   0.0000       0.047357         1.2887
   9   0.0000       0.083655         2.2764

                 SPIN DOWN ORBITALS
  NO   OCC          E(Eh)            E(eV)
   0   1.0000     -10.174762      -276.8694
   1   1.0000      -0.644860       -17.5475
   2   1.0000      -0.429599       -11.6900
   3   1.0000      -0.388928       -10.5833
   4   0.0000      -0.077926        -2.1205
   5   0.0000       0.003578         0.0974
   6   0.0000       0.034313         0.9337
   7   0.0000       0.038386         1.0445
   8   0.0000       0.060601         1.6490

MULLIKEN ATOMIC CHARGES AND SPIN POPULATIONS
--------------------------------------------
   0 C :   -0.428082    1.104865
   1 H :    0.145615   -0.034378
   2 H :    0.130379   -0.037681
   3 H :    0.152088   -0.032806
Sum of atomic charges         :   -0.0000000

LOEWDIN ATOMIC CHARGES AND SPIN POPULATIONS
-------------------------------------------
   0 C :   -0.164126    0.914288
   1 H :    0.046098    0.031605
   2 H :    0.066820    0.023876
   3 H :    0.051209    0.030230

  Mayer bond orders larger than 0.100000
B(  0-C ,  1-H ) :   0.9758 B(  0-C ,  2-H ) :   0.9778 B(  0-C ,  3-H ) :   0.9740

FINAL SINGLE POINT ENERGY       -39.824319392271

DIPOLE MOMENT
-------------
                                X             Y             Z
Electronic contribution:     -0.07167      -0.16884       0.06414
Nuclear contribution   :      0.09125       0.21174      -0.03458
                        -----------------------------------------
Total Dipole Moment    :      0.01958       0.04290       0.02956
                        -----------------------------------------
Magnitude (a.u.)       :      0.05565
Magnitude (Debye)      :      0.14146

Rotational constants in cm-1:    10.339984     8.397846     4.660185
Rotational constants in MHz : 309984.934548 251761.083615 139708.823910

                             ****ORCA TERMINATED NORMALLY****
TOTAL RUN TIME: 0 days 0 hours 0 minutes 24 seconds 469 msec
