                         Program Version 5.0.3 -  RELEASE  -
|  1> !B3LYP EPR-III Autoaux
|  2> !PAL4
|  3>
|  4> * xyz 0 2
|  5>  C      3.2979965202    -11.1529091338     -9.5492128802
|  6>  H      2.2202811185    -11.3630764549     -9.7610627059
|  7>  H      4.0926977735    -11.2094141203    -10.1949624254
|  8>  H      3.4020423823    -10.7213640324     -8.5686866732
|  9> *
| 10>
| 11> %EPRNMR
| 12>         GTENSOR   TRUE
| 13>         NUCLEI    = ALL H {AISO, ADIP, AORB}
| 14>         NUCLEI    = ALL C {AISO, ADIP, AORB}
| 15> END
| 16>
| 17>
| 18>                          ****END OF INPUT****

CARTESIAN COORDINATES (ANGSTROEM)
---------------------------------
  C      3.297997  -11.152909   -9.549213
  H      2.220281  -11.363076   -9.761063
  H      4.092698  -11.209414  -10.194962
  H      3.402042  -10.721364   -8.568687

 Total Charge           Charge          ....    0
 Multiplicity           Mult            ....    2
 Number of Electrons    NEL             ....    9
 Basis Dimension        Dim             ....   73

ORBITAL ENERGIES
----------------
                 SPIN UP ORBITALS
  NO   OCC          E(Eh)            E(eV)
   0   1.0000     -10.182270      -277.0737
   1   1.0000      -0.690582       -18.7917
   2   1.0000      -0.444026       -12.0826
   3   1.0000      -0.403878       -10.9901
   4   1.0000      -0.235498        -6.4082
   5   0.0000       0.001092         0.0297
   6   0.0000       0.034778         0.9464
   7   0.0000       0.038654         1.0518
   8   0.0000       0.047489         1.2922
   9   0.0000       0.084898         2.3102

                 SPIN DOWN ORBITALS
  NO   OCC          E(Eh)            E(eV)
   0   1.0000     -10.167854      -276.6814
   1   1.0000      -0.651301       -17.7228
   2   1.0000      -0.434448       -11.8219
   3   1.0000      -0.394289       -10.7291
   4   0.0000      -0.077848        -2.1184
   5   0.0000       0.004148         0.1129
   6   0.0000       0.034430         0.9369
   7   0.0000       0.038244         1.0407
   8   0.0000       0.060691         1.6515

MULLIKEN ATOMIC CHARGES AND SPIN POPULATIONS
--------------------------------------------
   0 C :   -0.428667    1.101565
   1 H :    0.139179   -0.037353
   2 H :    0.153218   -0.029460
   3 H :    0.136270   -0.034752
Sum of atomic charges         :   -0.0000000

LOEWDIN ATOMIC CHARGES AND SPIN POPULATIONS
-------------------------------------------
   0 C :   -0.141881    0.904015
   1 H :    0.069254    0.024536
   2 H :    0.023992    0.039886
   3 H :    0.048635    0.031564

  Mayer bond orders larger than 0.100000
B(  0-C ,  1-H ) :   0.9788 B(  0-C ,  2-H ) :   0.9782 B(  0-C ,  3-H ) :   0.9797

FINAL SINGLE POINT ENERGY       -39.823669677226

DIPOLE MOMENT
-------------
                                X             Y             Z
Electronic contribution:      0.12710      -0.08142      -0.09022
Nuclear contribution   :     -0.13413       0.12357       0.09213
                        -----------------------------------------
Total Dipole Moment    :     -0.00703       0.04215       0.00191
                        -----------------------------------------
Magnitude (a.u.)       :      0.04277
Magnitude (Debye)      :      0.10872

Rotational constants in cm-1:    10.579822     8.895297     4.846490
Rotational constants in MHz : 317175.081168 266674.286512 145294.122981

                             ****ORCA TERMINATED NORMALLY****
TOTAL RUN TIME: 0 days 0 hours 0 minutes 29 seconds 676 msec
