                         Program Version 5.0.3 -  RELEASE  -
|  1> !B3LYP EPR-III Autoaux
|  2> !PAL4
|  3>
|  4> * xyz 0 2
|  5>  C    -34.6071235042    -54.0238308076    -19.2868114047
|  6>  H    -34.2015631732    -54.9674290064    -19.2065055180
|  7>  H    -34.1795916873    -52.9132558740    -19.3196204354
|  8>  H    -35.6792296687    -53.9267961617    -19.3152644570
|  9> *
| 10>
| 11> %EPRNMR
| 12>         GTENSOR   TRUE
| 13>         NUCLEI    = ALL H {AISO, ADIP, AORB}
| 14>         NUCLEI    = ALL C {AISO, ADIP, AORB}
| 15> END
| 16>
| 17>
| 18>                          ****END OF INPUT****

CARTESIAN COORDINATES (ANGSTROEM)
---------------------------------
  C    -34.607124  -54.023831  -19.286811
  H    -34.201563  -54.967429  -19.206506
  H    -34.179592  -52.913256  -19.319620
  H    -35.679230  -53.926796  -19.315264

 Total Charge           Charge          ....    0
 Multiplicity           Mult            ....    2
 Number of Electrons    NEL             ....    9
 Basis Dimension        Dim             ....   73

ORBITAL ENERGIES
----------------
                 SPIN UP ORBITALS
  NO   OCC          E(Eh)            E(eV)
   0   1.0000     -10.189703      -277.2759
   1   1.0000      -0.686146       -18.6710
   2   1.0000      -0.445345       -12.1185
   3   1.0000      -0.390027       -10.6132
   4   1.0000      -0.235471        -6.4075
   5   0.0000      -0.000445        -0.0121
   6   0.0000       0.033107         0.9009
   7   0.0000       0.039463         1.0738
   8   0.0000       0.047312         1.2874
   9   0.0000       0.071373         1.9422

                 SPIN DOWN ORBITALS
  NO   OCC          E(Eh)            E(eV)
   0   1.0000     -10.175113      -276.8789
   1   1.0000      -0.646621       -17.5954
   2   1.0000      -0.436116       -11.8673
   3   1.0000      -0.380468       -10.3531
   4   0.0000      -0.077535        -2.1098
   5   0.0000       0.003001         0.0816
   6   0.0000       0.032920         0.8958
   7   0.0000       0.039127         1.0647
   8   0.0000       0.060584         1.6486

MULLIKEN ATOMIC CHARGES AND SPIN POPULATIONS
--------------------------------------------
   0 C :   -0.434915    1.109792
   1 H :    0.157935   -0.030008
   2 H :    0.142867   -0.044072
   3 H :    0.134113   -0.035712
Sum of atomic charges         :   -0.0000000

LOEWDIN ATOMIC CHARGES AND SPIN POPULATIONS
-------------------------------------------
   0 C :   -0.162299    0.915347
   1 H :    0.023270    0.039409
   2 H :    0.095634    0.013251
   3 H :    0.043396    0.031993

  Mayer bond orders larger than 0.100000
B(  0-C ,  1-H ) :   0.9756 B(  0-C ,  2-H ) :   0.9743 B(  0-C ,  3-H ) :   0.9771

FINAL SINGLE POINT ENERGY       -39.814635808471

DIPOLE MOMENT
-------------
                                X             Y             Z
Electronic contribution:      0.13910      -0.19556      -0.00391
Nuclear contribution   :     -0.17914       0.19787       0.01427
                        -----------------------------------------
Total Dipole Moment    :     -0.04003       0.00231       0.01036
                        -----------------------------------------
Magnitude (a.u.)       :      0.04142
Magnitude (Debye)      :      0.10527

Rotational constants in cm-1:    11.188507     7.831813     4.608145
Rotational constants in MHz : 335423.012824 234791.845453 138148.723422

                             ****ORCA TERMINATED NORMALLY****
TOTAL RUN TIME: 0 days 0 hours 0 minutes 22 seconds 562 msec
