                         Program Version 5.0.3 -  RELEASE  -
|  1> !B3LYP EPR-III Autoaux
|  2> !PAL4
|  3>
|  4> * xyz 0 2
|  5>  C    -38.6123047783    -58.4854954615    -20.2909885670
|  6>  H    -39.5222136800    -58.0509613951    -20.3416074225
|  7>  H    -38.7106009266    -59.5851807582    -20.4380136247
|  8>  H    -37.7673220548    -57.8977904849    -20.1594018974
|  9> *
| 10>
| 11> %EPRNMR
| 12>         GTENSOR   TRUE
| 13>         NUCLEI    = ALL H {AISO, ADIP, AORB}
| 14>         NUCLEI    = ALL C {AISO, ADIP, AORB}
| 15> END
| 16>
| 17>
| 18>                          ****END OF INPUT****

CARTESIAN COORDINATES (ANGSTROEM)
---------------------------------
  C    -38.612305  -58.485495  -20.290989
  H    -39.522214  -58.050961  -20.341607
  H    -38.710601  -59.585181  -20.438014
  H    -37.767322  -57.897790  -20.159402

 Total Charge           Charge          ....    0
 Multiplicity           Mult            ....    2
 Number of Electrons    NEL             ....    9
 Basis Dimension        Dim             ....   73

ORBITAL ENERGIES
----------------
                 SPIN UP ORBITALS
  NO   OCC          E(Eh)            E(eV)
   0   1.0000     -10.175805      -276.8977
   1   1.0000      -0.696762       -18.9599
   2   1.0000      -0.444990       -12.1088
   3   1.0000      -0.410805       -11.1786
   4   1.0000      -0.234841        -6.3904
   5   0.0000       0.001487         0.0405
   6   0.0000       0.034848         0.9483
   7   0.0000       0.038606         1.0505
   8   0.0000       0.047601         1.2953
   9   0.0000       0.084441         2.2977

                 SPIN DOWN ORBITALS
  NO   OCC          E(Eh)            E(eV)
   0   1.0000     -10.161507      -276.5087
   1   1.0000      -0.657718       -17.8974
   2   1.0000      -0.435376       -11.8472
   3   1.0000      -0.400766       -10.9054
   4   0.0000      -0.077670        -2.1135
   5   0.0000       0.004431         0.1206
   6   0.0000       0.034476         0.9381
   7   0.0000       0.038155         1.0382
   8   0.0000       0.060775         1.6538

MULLIKEN ATOMIC CHARGES AND SPIN POPULATIONS
--------------------------------------------
   0 C :   -0.432085    1.099713
   1 H :    0.141170   -0.031355
   2 H :    0.139672   -0.037590
   3 H :    0.151243   -0.030767
Sum of atomic charges         :    0.0000000

LOEWDIN ATOMIC CHARGES AND SPIN POPULATIONS
-------------------------------------------
   0 C :   -0.123916    0.895128
   1 H :    0.016733    0.042838
   2 H :    0.071792    0.024802
   3 H :    0.035392    0.037232

  Mayer bond orders larger than 0.100000
B(  0-C ,  1-H ) :   0.9811 B(  0-C ,  2-H ) :   0.9814 B(  0-C ,  3-H ) :   0.9811

FINAL SINGLE POINT ENERGY       -39.820228259574

DIPOLE MOMENT
-------------
                                X             Y             Z
Electronic contribution:      0.09583       0.07251       0.03638
Nuclear contribution   :     -0.12233      -0.05804      -0.04951
                        -----------------------------------------
Total Dipole Moment    :     -0.02650       0.01446      -0.01312
                        -----------------------------------------
Magnitude (a.u.)       :      0.03292
Magnitude (Debye)      :      0.08367

Rotational constants in cm-1:    11.797038     8.724175     5.016646
Rotational constants in MHz : 353666.305187 261544.172820 150395.258430

                             ****ORCA TERMINATED NORMALLY****
TOTAL RUN TIME: 0 days 0 hours 0 minutes 19 seconds 222 msec
