                         Program Version 5.0.3 -  RELEASE  -
|  1> !B3LYP EPR-III Autoaux
|  2> !PAL4
|  3>
|  4> * xyz 0 2
|  5>  C    -28.6373684774    -47.2830806449    -17.7708891876
|  6>  H    -27.7323336731    -47.7476608284    -17.6485491111
|  7>  H    -28.5644613838    -46.1371602124    -17.7460950405
|  8>  H    -29.5664738554    -47.7528545867    -18.0022949403
|  9> *
| 10>
| 11> %EPRNMR
| 12>         GTENSOR   TRUE
| 13>         NUCLEI    = ALL H {AISO, ADIP, AORB}
| 14>         NUCLEI    = ALL C {AISO, ADIP, AORB}
| 15> END
| 16>
| 17>
| 18>                          ****END OF INPUT****

CARTESIAN COORDINATES (ANGSTROEM)
---------------------------------
  C    -28.637368  -47.283081  -17.770889
  H    -27.732334  -47.747661  -17.648549
  H    -28.564461  -46.137160  -17.746095
  H    -29.566474  -47.752855  -18.002295

 Total Charge           Charge          ....    0
 Multiplicity           Mult            ....    2
 Number of Electrons    NEL             ....    9
 Basis Dimension        Dim             ....   73

ORBITAL ENERGIES
----------------
                 SPIN UP ORBITALS
  NO   OCC          E(Eh)            E(eV)
   0   1.0000     -10.184065      -277.1225
   1   1.0000      -0.689183       -18.7536
   2   1.0000      -0.441151       -12.0043
   3   1.0000      -0.404647       -11.0110
   4   1.0000      -0.235306        -6.4030
   5   0.0000       0.000831         0.0226
   6   0.0000       0.035289         0.9603
   7   0.0000       0.038109         1.0370
   8   0.0000       0.047454         1.2913
   9   0.0000       0.084972         2.3122

                 SPIN DOWN ORBITALS
  NO   OCC          E(Eh)            E(eV)
   0   1.0000     -10.169614      -276.7293
   1   1.0000      -0.649762       -17.6809
   2   1.0000      -0.431429       -11.7398
   3   1.0000      -0.395367       -10.7585
   4   0.0000      -0.077646        -2.1129
   5   0.0000       0.003968         0.1080
   6   0.0000       0.034921         0.9503
   7   0.0000       0.037757         1.0274
   8   0.0000       0.060682         1.6512

MULLIKEN ATOMIC CHARGES AND SPIN POPULATIONS
--------------------------------------------
   0 C :   -0.427532    1.103006
   1 H :    0.148316   -0.031149
   2 H :    0.130599   -0.039179
   3 H :    0.148617   -0.032678
Sum of atomic charges         :   -0.0000000

LOEWDIN ATOMIC CHARGES AND SPIN POPULATIONS
-------------------------------------------
   0 C :   -0.144812    0.906514
   1 H :    0.021119    0.040343
   2 H :    0.078784    0.020263
   3 H :    0.044909    0.032880

  Mayer bond orders larger than 0.100000
B(  0-C ,  1-H ) :   0.9776 B(  0-C ,  2-H ) :   0.9790 B(  0-C ,  3-H ) :   0.9770

FINAL SINGLE POINT ENERGY       -39.822925483581

DIPOLE MOMENT
-------------
                                X             Y             Z
Electronic contribution:     -0.02303      -0.16441       0.03662
Nuclear contribution   :      0.03660       0.15856      -0.06316
                        -----------------------------------------
Total Dipole Moment    :      0.01357      -0.00584      -0.02654
                        -----------------------------------------
Magnitude (a.u.)       :      0.03038
Magnitude (Debye)      :      0.07721

Rotational constants in cm-1:    10.196459     8.965900     4.778049
Rotational constants in MHz : 305682.145808 268790.914844 143242.292390

                             ****ORCA TERMINATED NORMALLY****
TOTAL RUN TIME: 0 days 0 hours 0 minutes 23 seconds 141 msec
