                         Program Version 5.0.3 -  RELEASE  -
|  1> !B3LYP EPR-III Autoaux
|  2> !PAL4
|  3>
|  4> * xyz 0 2
|  5>  C    -70.4223974452    -94.7070996565    -28.0909803091
|  6>  H    -69.7966701374    -95.6223327423    -28.1811443341
|  7>  H    -69.9842097408    -93.6300092113    -27.9817287147
|  8>  H    -71.4849629550    -94.8943382440    -28.1565890219
|  9> *
| 10>
| 11> %EPRNMR
| 12>         GTENSOR   TRUE
| 13>         NUCLEI    = ALL H {AISO, ADIP, AORB}
| 14>         NUCLEI    = ALL C {AISO, ADIP, AORB}
| 15> END
| 16>
| 17>
| 18>                          ****END OF INPUT****

CARTESIAN COORDINATES (ANGSTROEM)
---------------------------------
  C    -70.422397  -94.707100  -28.090980
  H    -69.796670  -95.622333  -28.181144
  H    -69.984210  -93.630009  -27.981729
  H    -71.484963  -94.894338  -28.156589

 Total Charge           Charge          ....    0
 Multiplicity           Mult            ....    2
 Number of Electrons    NEL             ....    9
 Basis Dimension        Dim             ....   73

ORBITAL ENERGIES
----------------
                 SPIN UP ORBITALS
  NO   OCC          E(Eh)            E(eV)
   0   1.0000     -10.195864      -277.4436
   1   1.0000      -0.677829       -18.4447
   2   1.0000      -0.416661       -11.3379
   3   1.0000      -0.411144       -11.1878
   4   1.0000      -0.234891        -6.3917
   5   0.0000      -0.000831        -0.0226
   6   0.0000       0.035722         0.9720
   7   0.0000       0.037407         1.0179
   8   0.0000       0.047286         1.2867
   9   0.0000       0.078156         2.1267

                 SPIN DOWN ORBITALS
  NO   OCC          E(Eh)            E(eV)
   0   1.0000     -10.181186      -277.0442
   1   1.0000      -0.637979       -17.3603
   2   1.0000      -0.407869       -11.0987
   3   1.0000      -0.401734       -10.9317
   4   0.0000      -0.076904        -2.0927
   5   0.0000       0.002804         0.0763
   6   0.0000       0.035526         0.9667
   7   0.0000       0.037054         1.0083
   8   0.0000       0.060661         1.6507

MULLIKEN ATOMIC CHARGES AND SPIN POPULATIONS
--------------------------------------------
   0 C :   -0.428044    1.111262
   1 H :    0.140904   -0.036712
   2 H :    0.144671   -0.039820
   3 H :    0.142469   -0.034730
Sum of atomic charges         :   -0.0000000

LOEWDIN ATOMIC CHARGES AND SPIN POPULATIONS
-------------------------------------------
   0 C :   -0.183510    0.924943
   1 H :    0.058004    0.026282
   2 H :    0.082807    0.017275
   3 H :    0.042698    0.031500

  Mayer bond orders larger than 0.100000
B(  0-C ,  1-H ) :   0.9724 B(  0-C ,  2-H ) :   0.9696 B(  0-C ,  3-H ) :   0.9724

FINAL SINGLE POINT ENERGY       -39.822770390527

DIPOLE MOMENT
-------------
                                X             Y             Z
Electronic contribution:     -0.01081       0.01013       0.02164
Nuclear contribution   :      0.00101      -0.01902      -0.03487
                        -----------------------------------------
Total Dipole Moment    :     -0.00980      -0.00889      -0.01323
                        -----------------------------------------
Magnitude (a.u.)       :      0.01871
Magnitude (Debye)      :      0.04756

Rotational constants in cm-1:     9.923008     8.021991     4.437100
Rotational constants in MHz : 297484.283549 240493.253823 133020.918263

                             ****ORCA TERMINATED NORMALLY****
TOTAL RUN TIME: 0 days 0 hours 0 minutes 36 seconds 550 msec
