                         Program Version 5.0.3 -  RELEASE  -
|  1> !B3LYP EPR-III Autoaux
|  2> !PAL4
|  3>
|  4> * xyz 0 2
|  5>  C    -82.0270714410   -108.8431253517    -30.8630972056
|  6>  H    -83.0589909996   -108.4367332603    -30.8551264307
|  7>  H    -81.7614322563   -109.9336081291    -30.9492201863
|  8>  H    -81.0086393566   -108.3163916816    -30.7802112666
|  9> *
| 10>
| 11> %EPRNMR
| 12>         GTENSOR   TRUE
| 13>         NUCLEI    = ALL H {AISO, ADIP, AORB}
| 14>         NUCLEI    = ALL C {AISO, ADIP, AORB}
| 15> END
| 16>
| 17>
| 18>                          ****END OF INPUT****

CARTESIAN COORDINATES (ANGSTROEM)
---------------------------------
  C    -82.027071  -108.843125  -30.863097
  H    -83.058991  -108.436733  -30.855126
  H    -81.761432  -109.933608  -30.949220
  H    -81.008639  -108.316392  -30.780211

 Total Charge           Charge          ....    0
 Multiplicity           Mult            ....    2
 Number of Electrons    NEL             ....    9
 Basis Dimension        Dim             ....   73

ORBITAL ENERGIES
----------------
                 SPIN UP ORBITALS
  NO   OCC          E(Eh)            E(eV)
   0   1.0000     -10.198652      -277.5194
   1   1.0000      -0.676084       -18.3972
   2   1.0000      -0.436451       -11.8764
   3   1.0000      -0.387008       -10.5310
   4   1.0000      -0.235260        -6.4017
   5   0.0000      -0.001276        -0.0347
   6   0.0000       0.033514         0.9120
   7   0.0000       0.039280         1.0689
   8   0.0000       0.047198         1.2843
   9   0.0000       0.075602         2.0572

                 SPIN DOWN ORBITALS
  NO   OCC          E(Eh)            E(eV)
   0   1.0000     -10.183911      -277.1183
   1   1.0000      -0.636160       -17.3108
   2   1.0000      -0.427738       -11.6393
   3   1.0000      -0.377668       -10.2769
   4   0.0000      -0.077102        -2.0981
   5   0.0000       0.002456         0.0668
   6   0.0000       0.033303         0.9062
   7   0.0000       0.038953         1.0600
   8   0.0000       0.060578         1.6484

MULLIKEN ATOMIC CHARGES AND SPIN POPULATIONS
--------------------------------------------
   0 C :   -0.434063    1.114717
   1 H :    0.157961   -0.034736
   2 H :    0.135856   -0.039021
   3 H :    0.140246   -0.040961
Sum of atomic charges         :   -0.0000000

LOEWDIN ATOMIC CHARGES AND SPIN POPULATIONS
-------------------------------------------
   0 C :   -0.193510    0.929138
   1 H :    0.059188    0.026319
   2 H :    0.061145    0.024307
   3 H :    0.073176    0.020237

  Mayer bond orders larger than 0.100000
B(  0-C ,  1-H ) :   0.9676 B(  0-C ,  2-H ) :   0.9730 B(  0-C ,  3-H ) :   0.9720

FINAL SINGLE POINT ENERGY       -39.818511423307

DIPOLE MOMENT
-------------
                                X             Y             Z
Electronic contribution:     -0.17947       0.10228      -0.00162
Nuclear contribution   :      0.18898      -0.11794       0.00355
                        -----------------------------------------
Total Dipole Moment    :      0.00951      -0.01566       0.00193
                        -----------------------------------------
Magnitude (a.u.)       :      0.01842
Magnitude (Debye)      :      0.04683

Rotational constants in cm-1:    10.483743     7.541346     4.386266
Rotational constants in MHz : 314294.707231 226083.861820 131496.961533

                             ****ORCA TERMINATED NORMALLY****
TOTAL RUN TIME: 0 days 0 hours 0 minutes 24 seconds 807 msec
