                         Program Version 5.0.3 -  RELEASE  -
|  1> !B3LYP EPR-III Autoaux
|  2> !PAL4
|  3>
|  4> * xyz 0 2
|  5>  C    -81.6807315122   -108.4191209830    -30.7812994477
|  6>  H    -82.5835398921   -107.7658289416    -30.7417150927
|  7>  H    -81.7629494578   -109.5855250782    -30.8815229377
|  8>  H    -80.5821886365   -108.2065275801    -30.7151322770
|  9> *
| 10>
| 11> %EPRNMR
| 12>         GTENSOR   TRUE
| 13>         NUCLEI    = ALL H {AISO, ADIP, AORB}
| 14>         NUCLEI    = ALL C {AISO, ADIP, AORB}
| 15> END
| 16>
| 17>
| 18>                          ****END OF INPUT****

CARTESIAN COORDINATES (ANGSTROEM)
---------------------------------
  C    -81.680732  -108.419121  -30.781299
  H    -82.583540  -107.765829  -30.741715
  H    -81.762949  -109.585525  -30.881523
  H    -80.582189  -108.206528  -30.715132

 Total Charge           Charge          ....    0
 Multiplicity           Mult            ....    2
 Number of Electrons    NEL             ....    9
 Basis Dimension        Dim             ....   73

ORBITAL ENERGIES
----------------
                 SPIN UP ORBITALS
  NO   OCC          E(Eh)            E(eV)
   0   1.0000     -10.201108      -277.5863
   1   1.0000      -0.674002       -18.3405
   2   1.0000      -0.435550       -11.8519
   3   1.0000      -0.384933       -10.4746
   4   1.0000      -0.235438        -6.4066
   5   0.0000      -0.001662        -0.0452
   6   0.0000       0.033528         0.9123
   7   0.0000       0.039170         1.0659
   8   0.0000       0.047142         1.2828
   9   0.0000       0.075431         2.0526

                 SPIN DOWN ORBITALS
  NO   OCC          E(Eh)            E(eV)
   0   1.0000     -10.186311      -277.1836
   1   1.0000      -0.633914       -17.2497
   2   1.0000      -0.426845       -11.6150
   3   1.0000      -0.375804       -10.2262
   4   0.0000      -0.077100        -2.0980
   5   0.0000       0.002176         0.0592
   6   0.0000       0.033323         0.9068
   7   0.0000       0.038888         1.0582
   8   0.0000       0.060538         1.6473

MULLIKEN ATOMIC CHARGES AND SPIN POPULATIONS
--------------------------------------------
   0 C :   -0.433563    1.116109
   1 H :    0.157908   -0.035449
   2 H :    0.128551   -0.041862
   3 H :    0.147105   -0.038797
Sum of atomic charges         :   -0.0000000

LOEWDIN ATOMIC CHARGES AND SPIN POPULATIONS
-------------------------------------------
   0 C :   -0.199123    0.932611
   1 H :    0.060699    0.025472
   2 H :    0.077931    0.017164
   3 H :    0.060493    0.024754

  Mayer bond orders larger than 0.100000
B(  0-C ,  1-H ) :   0.9665 B(  0-C ,  2-H ) :   0.9731 B(  0-C ,  3-H ) :   0.9697

FINAL SINGLE POINT ENERGY       -39.817069730672

DIPOLE MOMENT
-------------
                                X             Y             Z
Electronic contribution:     -0.07680       0.21805       0.00348
Nuclear contribution   :      0.08508      -0.22523       0.00414
                        -----------------------------------------
Total Dipole Moment    :      0.00827      -0.00719       0.00763
                        -----------------------------------------
Magnitude (a.u.)       :      0.01335
Magnitude (Debye)      :      0.03394

Rotational constants in cm-1:    10.045261     7.582633     4.321466
Rotational constants in MHz : 301149.337317 227321.610668 129554.300242

                             ****ORCA TERMINATED NORMALLY****
TOTAL RUN TIME: 0 days 0 hours 0 minutes 22 seconds 739 msec
