                         Program Version 5.0.3 -  RELEASE  -
|  1> !B3LYP EPR-III Autoaux
|  2> !PAL4
|  3>
|  4> * xyz 0 2
|  5>  C    -48.2192125326    -69.2420744867    -22.7104529449
|  6>  H    -47.9453131190    -70.3051282595    -22.7701991574
|  7>  H    -47.6433377148    -68.3045633623    -22.6984734950
|  8>  H    -49.2838900309    -68.9211136975    -22.7632742763
|  9> *
| 10>
| 11> %EPRNMR
| 12>         GTENSOR   TRUE
| 13>         NUCLEI    = ALL H {AISO, ADIP, AORB}
| 14>         NUCLEI    = ALL C {AISO, ADIP, AORB}
| 15> END
| 16>
| 17>
| 18>                          ****END OF INPUT****

CARTESIAN COORDINATES (ANGSTROEM)
---------------------------------
  C    -48.219213  -69.242074  -22.710453
  H    -47.945313  -70.305128  -22.770199
  H    -47.643338  -68.304563  -22.698473
  H    -49.283890  -68.921114  -22.763274

 Total Charge           Charge          ....    0
 Multiplicity           Mult            ....    2
 Number of Electrons    NEL             ....    9
 Basis Dimension        Dim             ....   73

ORBITAL ENERGIES
----------------
                 SPIN UP ORBITALS
  NO   OCC          E(Eh)            E(eV)
   0   1.0000     -10.191740      -277.3314
   1   1.0000      -0.682404       -18.5692
   2   1.0000      -0.440592       -11.9891
   3   1.0000      -0.392253       -10.6738
   4   1.0000      -0.235360        -6.4045
   5   0.0000      -0.000128        -0.0035
   6   0.0000       0.033743         0.9182
   7   0.0000       0.039282         1.0689
   8   0.0000       0.047322         1.2877
   9   0.0000       0.078157         2.1267

                 SPIN DOWN ORBITALS
  NO   OCC          E(Eh)            E(eV)
   0   1.0000     -10.177146      -276.9342
   1   1.0000      -0.642881       -17.4937
   2   1.0000      -0.431639       -11.7455
   3   1.0000      -0.382577       -10.4104
   4   0.0000      -0.077463        -2.1079
   5   0.0000       0.003264         0.0888
   6   0.0000       0.033482         0.9111
   7   0.0000       0.038891         1.0583
   8   0.0000       0.060620         1.6495

MULLIKEN ATOMIC CHARGES AND SPIN POPULATIONS
--------------------------------------------
   0 C :   -0.432829    1.109486
   1 H :    0.156442   -0.034213
   2 H :    0.145876   -0.037451
   3 H :    0.130510   -0.037822
Sum of atomic charges         :    0.0000000

LOEWDIN ATOMIC CHARGES AND SPIN POPULATIONS
-------------------------------------------
   0 C :   -0.174125    0.918624
   1 H :    0.058353    0.027539
   2 H :    0.056766    0.027642
   3 H :    0.059007    0.026194

  Mayer bond orders larger than 0.100000
B(  0-C ,  1-H ) :   0.9718 B(  0-C ,  2-H ) :   0.9750 B(  0-C ,  3-H ) :   0.9772

FINAL SINGLE POINT ENERGY       -39.821636325825

DIPOLE MOMENT
-------------
                                X             Y             Z
Electronic contribution:      0.14454      -0.13295       0.04713
Nuclear contribution   :     -0.16107       0.14646      -0.07539
                        -----------------------------------------
Total Dipole Moment    :     -0.01652       0.01351      -0.02826
                        -----------------------------------------
Magnitude (a.u.)       :      0.03541
Magnitude (Debye)      :      0.09002

Rotational constants in cm-1:    10.946437     7.861665     4.582236
Rotational constants in MHz : 328165.923747 235686.799283 137371.966782

                             ****ORCA TERMINATED NORMALLY****
TOTAL RUN TIME: 0 days 0 hours 0 minutes 23 seconds 638 msec
