                         Program Version 5.0.3 -  RELEASE  -
|  1> !B3LYP EPR-III Autoaux
|  2> !PAL4
|  3>
|  4> * xyz 0 2
|  5>  C    -13.8753656713    -30.6722456482    -13.9732502557
|  6>  H    -13.5081284987    -29.7533506965    -14.3829940558
|  7>  H    -14.8943177868    -30.8061659264    -14.2049886833
|  8>  H    -13.2506085779    -31.3951946491    -13.4680316594
|  9> *
| 10>
| 11> %EPRNMR
| 12>         GTENSOR   TRUE
| 13>         NUCLEI    = ALL H {AISO, ADIP, AORB}
| 14>         NUCLEI    = ALL C {AISO, ADIP, AORB}
| 15> END
| 16>
| 17>
| 18>                          ****END OF INPUT****

CARTESIAN COORDINATES (ANGSTROEM)
---------------------------------
  C    -13.875366  -30.672246  -13.973250
  H    -13.508128  -29.753351  -14.382994
  H    -14.894318  -30.806166  -14.204989
  H    -13.250609  -31.395195  -13.468032

 Total Charge           Charge          ....    0
 Multiplicity           Mult            ....    2
 Number of Electrons    NEL             ....    9
 Basis Dimension        Dim             ....   73

ORBITAL ENERGIES
----------------
                 SPIN UP ORBITALS
  NO   OCC          E(Eh)            E(eV)
   0   1.0000     -10.180585      -277.0278
   1   1.0000      -0.691243       -18.8097
   2   1.0000      -0.436891       -11.8884
   3   1.0000      -0.412901       -11.2356
   4   1.0000      -0.234849        -6.3906
   5   0.0000       0.001314         0.0358
   6   0.0000       0.035397         0.9632
   7   0.0000       0.038156         1.0383
   8   0.0000       0.047551         1.2939
   9   0.0000       0.089791         2.4433

                 SPIN DOWN ORBITALS
  NO   OCC          E(Eh)            E(eV)
   0   1.0000     -10.166219      -276.6369
   1   1.0000      -0.652023       -17.7424
   2   1.0000      -0.427495       -11.6327
   3   1.0000      -0.403037       -10.9672
   4   0.0000      -0.077530        -2.1097
   5   0.0000       0.004340         0.1181
   6   0.0000       0.035033         0.9533
   7   0.0000       0.037711         1.0262
   8   0.0000       0.060772         1.6537

MULLIKEN ATOMIC CHARGES AND SPIN POPULATIONS
--------------------------------------------
   0 C :   -0.428536    1.101145
   1 H :    0.138455   -0.034444
   2 H :    0.141616   -0.033357
   3 H :    0.148465   -0.033344
Sum of atomic charges         :   -0.0000000

LOEWDIN ATOMIC CHARGES AND SPIN POPULATIONS
-------------------------------------------
   0 C :   -0.140052    0.902223
   1 H :    0.047356    0.032321
   2 H :    0.038652    0.035212
   3 H :    0.054044    0.030244

  Mayer bond orders larger than 0.100000
B(  0-C ,  1-H ) :   0.9801 B(  0-C ,  2-H ) :   0.9798 B(  0-C ,  3-H ) :   0.9778

FINAL SINGLE POINT ENERGY       -39.826509109441

DIPOLE MOMENT
-------------
                                X             Y             Z
Electronic contribution:      0.01777      -0.04869       0.07469
Nuclear contribution   :     -0.02020       0.04649      -0.10213
                        -----------------------------------------
Total Dipole Moment    :     -0.00244      -0.00220      -0.02744
                        -----------------------------------------
Magnitude (a.u.)       :      0.02763
Magnitude (Debye)      :      0.07024

Rotational constants in cm-1:    10.909940     8.836117     4.887422
Rotational constants in MHz : 327071.785604 264900.131317 146521.224277

                             ****ORCA TERMINATED NORMALLY****
TOTAL RUN TIME: 0 days 0 hours 0 minutes 23 seconds 737 msec
