                         Program Version 5.0.3 -  RELEASE  -
|  1> !B3LYP EPR-III Autoaux
|  2> !PAL4
|  3>
|  4> * xyz 0 2
|  5>  C    -58.1604270488    -80.2883006147    -25.2237926206
|  6>  H    -57.6154312281    -79.3274640256    -25.1630114424
|  7>  H    -59.2785094276    -80.3126312094    -25.2027834526
|  8>  H    -57.5246256674    -81.1646424866    -25.2751503512
|  9> *
| 10>
| 11> %EPRNMR
| 12>         GTENSOR   TRUE
| 13>         NUCLEI    = ALL H {AISO, ADIP, AORB}
| 14>         NUCLEI    = ALL C {AISO, ADIP, AORB}
| 15> END
| 16>
| 17>
| 18>                          ****END OF INPUT****

CARTESIAN COORDINATES (ANGSTROEM)
---------------------------------
  C    -58.160427  -80.288301  -25.223793
  H    -57.615431  -79.327464  -25.163011
  H    -59.278509  -80.312631  -25.202783
  H    -57.524626  -81.164642  -25.275150

 Total Charge           Charge          ....    0
 Multiplicity           Mult            ....    2
 Number of Electrons    NEL             ....    9
 Basis Dimension        Dim             ....   73

ORBITAL ENERGIES
----------------
                 SPIN UP ORBITALS
  NO   OCC          E(Eh)            E(eV)
   0   1.0000     -10.190966      -277.3103
   1   1.0000      -0.681583       -18.5468
   2   1.0000      -0.425068       -11.5667
   3   1.0000      -0.410536       -11.1713
   4   1.0000      -0.234759        -6.3881
   5   0.0000       0.000167         0.0045
   6   0.0000       0.035757         0.9730
   7   0.0000       0.037601         1.0232
   8   0.0000       0.047385         1.2894
   9   0.0000       0.084869         2.3094

                 SPIN DOWN ORBITALS
  NO   OCC          E(Eh)            E(eV)
   0   1.0000     -10.176403      -276.9140
   1   1.0000      -0.641885       -17.4666
   2   1.0000      -0.415980       -11.3194
   3   1.0000      -0.401155       -10.9160
   4   0.0000      -0.077069        -2.0972
   5   0.0000       0.003540         0.0963
   6   0.0000       0.035448         0.9646
   7   0.0000       0.037232         1.0131
   8   0.0000       0.060712         1.6521

MULLIKEN ATOMIC CHARGES AND SPIN POPULATIONS
--------------------------------------------
   0 C :   -0.427426    1.107574
   1 H :    0.138021   -0.036394
   2 H :    0.145860   -0.036411
   3 H :    0.143545   -0.034769
Sum of atomic charges         :    0.0000000

LOEWDIN ATOMIC CHARGES AND SPIN POPULATIONS
-------------------------------------------
   0 C :   -0.169929    0.917512
   1 H :    0.057364    0.027097
   2 H :    0.064874    0.024772
   3 H :    0.047691    0.030619

  Mayer bond orders larger than 0.100000
B(  0-C ,  1-H ) :   0.9751 B(  0-C ,  2-H ) :   0.9730 B(  0-C ,  3-H ) :   0.9744

FINAL SINGLE POINT ENERGY       -39.826706266941

DIPOLE MOMENT
-------------
                                X             Y             Z
Electronic contribution:     -0.03870      -0.04415      -0.01521
Nuclear contribution   :      0.04700       0.04509       0.02281
                        -----------------------------------------
Total Dipole Moment    :      0.00831       0.00094       0.00760
                        -----------------------------------------
Magnitude (a.u.)       :      0.01130
Magnitude (Debye)      :      0.02872

Rotational constants in cm-1:     9.850725     8.568322     4.582945
Rotational constants in MHz : 295317.307101 256871.832529 137393.239327

                             ****ORCA TERMINATED NORMALLY****
TOTAL RUN TIME: 0 days 0 hours 0 minutes 19 seconds 105 msec
