                         Program Version 5.0.3 -  RELEASE  -
|  1> !B3LYP EPR-III Autoaux
|  2> !PAL4
|  3>
|  4> * xyz 0 2
|  5>  C      3.1666232084    -11.2852258919     -9.5787060503
|  6>  H      2.3700888378    -11.9580704441     -9.7652746129
|  7>  H      3.9392806292    -11.0129120074    -10.2737805739
|  8>  H      3.1188509853    -10.8540575957     -8.6125098924
|  9> *
| 10>
| 11> %EPRNMR
| 12>         GTENSOR   TRUE
| 13>         NUCLEI    = ALL H {AISO, ADIP, AORB}
| 14>         NUCLEI    = ALL C {AISO, ADIP, AORB}
| 15> END
| 16>
| 17>
| 18>                          ****END OF INPUT****

CARTESIAN COORDINATES (ANGSTROEM)
---------------------------------
  C      3.166623  -11.285226   -9.578706
  H      2.370089  -11.958070   -9.765275
  H      3.939281  -11.012912  -10.273781
  H      3.118851  -10.854058   -8.612510

 Total Charge           Charge          ....    0
 Multiplicity           Mult            ....    2
 Number of Electrons    NEL             ....    9
 Basis Dimension        Dim             ....   73

ORBITAL ENERGIES
----------------
                 SPIN UP ORBITALS
  NO   OCC          E(Eh)            E(eV)
   0   1.0000     -10.179255      -276.9916
   1   1.0000      -0.692150       -18.8344
   2   1.0000      -0.436125       -11.8676
   3   1.0000      -0.415935       -11.3182
   4   1.0000      -0.234641        -6.3849
   5   0.0000       0.001471         0.0400
   6   0.0000       0.035612         0.9690
   7   0.0000       0.037971         1.0332
   8   0.0000       0.047578         1.2947
   9   0.0000       0.089989         2.4487

                 SPIN DOWN ORBITALS
  NO   OCC          E(Eh)            E(eV)
   0   1.0000     -10.164920      -276.6015
   1   1.0000      -0.652921       -17.7669
   2   1.0000      -0.426693       -11.6109
   3   1.0000      -0.406063       -11.0495
   4   0.0000      -0.077448        -2.1075
   5   0.0000       0.004465         0.1215
   6   0.0000       0.035229         0.9586
   7   0.0000       0.037522         1.0210
   8   0.0000       0.060796         1.6543

MULLIKEN ATOMIC CHARGES AND SPIN POPULATIONS
--------------------------------------------
   0 C :   -0.428505    1.100425
   1 H :    0.142604   -0.033500
   2 H :    0.147292   -0.033275
   3 H :    0.138609   -0.033650
Sum of atomic charges         :    0.0000000

LOEWDIN ATOMIC CHARGES AND SPIN POPULATIONS
-------------------------------------------
   0 C :   -0.136056    0.900327
   1 H :    0.042773    0.034091
   2 H :    0.051391    0.031281
   3 H :    0.041892    0.034300

  Mayer bond orders larger than 0.100000
B(  0-C ,  1-H ) :   0.9800 B(  0-C ,  2-H ) :   0.9787 B(  0-C ,  3-H ) :   0.9804

FINAL SINGLE POINT ENERGY       -39.827018854782

DIPOLE MOMENT
-------------
                                X             Y             Z
Electronic contribution:      0.04217      -0.01503      -0.05575
Nuclear contribution   :     -0.05370       0.02296       0.06337
                        -----------------------------------------
Total Dipole Moment    :     -0.01153       0.00793       0.00762
                        -----------------------------------------
Magnitude (a.u.)       :      0.01594
Magnitude (Debye)      :      0.04051

Rotational constants in cm-1:    10.800127     9.045153     4.923397
Rotational constants in MHz : 323779.667996 271166.853345 147599.724266

                             ****ORCA TERMINATED NORMALLY****
TOTAL RUN TIME: 0 days 0 hours 0 minutes 28 seconds 386 msec
