                         Program Version 5.0.3 -  RELEASE  -
|  1> !B3LYP EPR-III Autoaux
|  2> !PAL4
|  3>
|  4> * xyz 0 2
|  5>  C    -19.3041050547    -36.7393409809    -15.3901657155
|  6>  H    -19.8457563458    -35.8975187213    -15.6686073103
|  7>  H    -19.7214519504    -37.7807637094    -15.3245559486
|  8>  H    -18.2896011487    -36.5023187818    -15.0234288756
|  9> *
| 10>
| 11> %EPRNMR
| 12>         GTENSOR   TRUE
| 13>         NUCLEI    = ALL H {AISO, ADIP, AORB}
| 14>         NUCLEI    = ALL C {AISO, ADIP, AORB}
| 15> END
| 16>
| 17>
| 18>                          ****END OF INPUT****

CARTESIAN COORDINATES (ANGSTROEM)
---------------------------------
  C    -19.304105  -36.739341  -15.390166
  H    -19.845756  -35.897519  -15.668607
  H    -19.721452  -37.780764  -15.324556
  H    -18.289601  -36.502319  -15.023429

 Total Charge           Charge          ....    0
 Multiplicity           Mult            ....    2
 Number of Electrons    NEL             ....    9
 Basis Dimension        Dim             ....   73

ORBITAL ENERGIES
----------------
                 SPIN UP ORBITALS
  NO   OCC          E(Eh)            E(eV)
   0   1.0000     -10.186763      -277.1959
   1   1.0000      -0.686254       -18.6739
   2   1.0000      -0.429309       -11.6821
   3   1.0000      -0.411499       -11.1974
   4   1.0000      -0.235232        -6.4010
   5   0.0000       0.000559         0.0152
   6   0.0000       0.035704         0.9716
   7   0.0000       0.037754         1.0274
   8   0.0000       0.047433         1.2907
   9   0.0000       0.084938         2.3113

                 SPIN DOWN ORBITALS
  NO   OCC          E(Eh)            E(eV)
   0   1.0000     -10.172266      -276.8014
   1   1.0000      -0.646858       -17.6019
   2   1.0000      -0.419888       -11.4257
   3   1.0000      -0.402017       -10.9394
   4   0.0000      -0.077481        -2.1084
   5   0.0000       0.003782         0.1029
   6   0.0000       0.035396         0.9632
   7   0.0000       0.037362         1.0167
   8   0.0000       0.060697         1.6517

MULLIKEN ATOMIC CHARGES AND SPIN POPULATIONS
--------------------------------------------
   0 C :   -0.427563    1.104292
   1 H :    0.145756   -0.031887
   2 H :    0.145355   -0.036315
   3 H :    0.136451   -0.036090
Sum of atomic charges         :   -0.0000000

LOEWDIN ATOMIC CHARGES AND SPIN POPULATIONS
-------------------------------------------
   0 C :   -0.156193    0.910964
   1 H :    0.026972    0.038076
   2 H :    0.069913    0.023741
   3 H :    0.059308    0.027219

  Mayer bond orders larger than 0.100000
B(  0-C ,  1-H ) :   0.9765 B(  0-C ,  2-H ) :   0.9747 B(  0-C ,  3-H ) :   0.9775

FINAL SINGLE POINT ENERGY       -39.824938518358

DIPOLE MOMENT
-------------
                                X             Y             Z
Electronic contribution:     -0.05268      -0.01052      -0.08266
Nuclear contribution   :      0.04160       0.02805       0.11535
                        -----------------------------------------
Total Dipole Moment    :     -0.01108       0.01753       0.03269
                        -----------------------------------------
Magnitude (a.u.)       :      0.03871
Magnitude (Debye)      :      0.09839

Rotational constants in cm-1:    10.411879     8.537140     4.702891
Rotational constants in MHz : 312140.292693 255937.029939 140989.133058

                             ****ORCA TERMINATED NORMALLY****
TOTAL RUN TIME: 0 days 0 hours 0 minutes 18 seconds 624 msec
