                         Program Version 5.0.3 -  RELEASE  -
|  1> !B3LYP EPR-III Autoaux
|  2> !PAL4
|  3>
|  4> * xyz 0 2
|  5>  C      6.9870157890     -6.9418109342     -8.5651891632
|  6>  H      6.4117203721     -7.4236776680     -7.7986949306
|  7>  H      8.0365841556     -7.2262113212     -8.8880022612
|  8>  H      6.3954985068     -6.2523915469     -9.1994790084
|  9> *
| 10>
| 11> %EPRNMR
| 12>         GTENSOR   TRUE
| 13>         NUCLEI    = ALL H {AISO, ADIP, AORB}
| 14>         NUCLEI    = ALL C {AISO, ADIP, AORB}
| 15> END
| 16>
| 17>
| 18>                          ****END OF INPUT****

CARTESIAN COORDINATES (ANGSTROEM)
---------------------------------
  C      6.987016   -6.941811   -8.565189
  H      6.411720   -7.423678   -7.798695
  H      8.036584   -7.226211   -8.888002
  H      6.395499   -6.252392   -9.199479

 Total Charge           Charge          ....    0
 Multiplicity           Mult            ....    2
 Number of Electrons    NEL             ....    9
 Basis Dimension        Dim             ....   73

ORBITAL ENERGIES
----------------
                 SPIN UP ORBITALS
  NO   OCC          E(Eh)            E(eV)
   0   1.0000     -10.191710      -277.3305
   1   1.0000      -0.681687       -18.5496
   2   1.0000      -0.425645       -11.5824
   3   1.0000      -0.408050       -11.1036
   4   1.0000      -0.235987        -6.4215
   5   0.0000      -0.000015        -0.0004
   6   0.0000       0.035639         0.9698
   7   0.0000       0.037836         1.0296
   8   0.0000       0.047332         1.2880
   9   0.0000       0.082760         2.2520

                 SPIN DOWN ORBITALS
  NO   OCC          E(Eh)            E(eV)
   0   1.0000     -10.177106      -276.9331
   1   1.0000      -0.642208       -17.4754
   2   1.0000      -0.416453       -11.3322
   3   1.0000      -0.398605       -10.8466
   4   0.0000      -0.077740        -2.1154
   5   0.0000       0.003336         0.0908
   6   0.0000       0.035361         0.9622
   7   0.0000       0.037478         1.0198
   8   0.0000       0.060608         1.6492

MULLIKEN ATOMIC CHARGES AND SPIN POPULATIONS
--------------------------------------------
   0 C :   -0.426084    1.105493
   1 H :    0.145057   -0.033211
   2 H :    0.145103   -0.036460
   3 H :    0.135925   -0.035822
Sum of atomic charges         :   -0.0000000

LOEWDIN ATOMIC CHARGES AND SPIN POPULATIONS
-------------------------------------------
   0 C :   -0.171148    0.917929
   1 H :    0.042099    0.032561
   2 H :    0.071521    0.022518
   3 H :    0.057528    0.026992

  Mayer bond orders larger than 0.100000
B(  0-C ,  1-H ) :   0.9742 B(  0-C ,  2-H ) :   0.9725 B(  0-C ,  3-H ) :   0.9755

FINAL SINGLE POINT ENERGY       -39.825239089568

DIPOLE MOMENT
-------------
                                X             Y             Z
Electronic contribution:      0.05948       0.01991       0.10839
Nuclear contribution   :     -0.08787      -0.05760      -0.14286
                        -----------------------------------------
Total Dipole Moment    :     -0.02840      -0.03769      -0.03447
                        -----------------------------------------
Magnitude (a.u.)       :      0.05844
Magnitude (Debye)      :      0.14854

Rotational constants in cm-1:     9.970160     8.381546     4.582463
Rotational constants in MHz : 298897.882180 251272.435895 137378.789875

                             ****ORCA TERMINATED NORMALLY****
TOTAL RUN TIME: 0 days 0 hours 0 minutes 34 seconds 3 msec
