                         Program Version 5.0.3 -  RELEASE  -
|  1> !B3LYP EPR-III Autoaux
|  2> !PAL4
|  3>
|  4> * xyz 0 2
|  5>  C    -14.7711824304    -31.6957965825    -14.2150971280
|  6>  H    -15.7002583911    -31.0525410494    -13.9709116450
|  7>  H    -14.8347792693    -32.4935250825    -14.9120229299
|  8>  H    -13.8701098771    -31.3459176596    -13.7382643393
|  9> *
| 10>
| 11> %EPRNMR
| 12>         GTENSOR   TRUE
| 13>         NUCLEI    = ALL H {AISO, ADIP, AORB}
| 14>         NUCLEI    = ALL C {AISO, ADIP, AORB}
| 15> END
| 16>
| 17>
| 18>                          ****END OF INPUT****

CARTESIAN COORDINATES (ANGSTROEM)
---------------------------------
  C    -14.771182  -31.695797  -14.215097
  H    -15.700258  -31.052541  -13.970912
  H    -14.834779  -32.493525  -14.912023
  H    -13.870110  -31.345918  -13.738264

 Total Charge           Charge          ....    0
 Multiplicity           Mult            ....    2
 Number of Electrons    NEL             ....    9
 Basis Dimension        Dim             ....   73

ORBITAL ENERGIES
----------------
                 SPIN UP ORBITALS
  NO   OCC          E(Eh)            E(eV)
   0   1.0000     -10.189700      -277.2758
   1   1.0000      -0.683559       -18.6006
   2   1.0000      -0.435682       -11.8555
   3   1.0000      -0.402300       -10.9471
   4   1.0000      -0.235205        -6.4003
   5   0.0000       0.000272         0.0074
   6   0.0000       0.035268         0.9597
   7   0.0000       0.038025         1.0347
   8   0.0000       0.047372         1.2891
   9   0.0000       0.083479         2.2716

                 SPIN DOWN ORBITALS
  NO   OCC          E(Eh)            E(eV)
   0   1.0000     -10.175148      -276.8799
   1   1.0000      -0.643891       -17.5212
   2   1.0000      -0.426240       -11.5986
   3   1.0000      -0.393176       -10.6989
   4   0.0000      -0.077387        -2.1058
   5   0.0000       0.003589         0.0977
   6   0.0000       0.034927         0.9504
   7   0.0000       0.037705         1.0260
   8   0.0000       0.060661         1.6507

MULLIKEN ATOMIC CHARGES AND SPIN POPULATIONS
--------------------------------------------
   0 C :   -0.426988    1.106438
   1 H :    0.132392   -0.039716
   2 H :    0.150138   -0.032305
   3 H :    0.144458   -0.034418
Sum of atomic charges         :    0.0000000

LOEWDIN ATOMIC CHARGES AND SPIN POPULATIONS
-------------------------------------------
   0 C :   -0.162775    0.915042
   1 H :    0.078582    0.019284
   2 H :    0.038344    0.034187
   3 H :    0.045849    0.031487

  Mayer bond orders larger than 0.100000
B(  0-C ,  1-H ) :   0.9763 B(  0-C ,  2-H ) :   0.9744 B(  0-C ,  3-H ) :   0.9751

FINAL SINGLE POINT ENERGY       -39.824536760794

DIPOLE MOMENT
-------------
                                X             Y             Z
Electronic contribution:      0.08062      -0.13141      -0.03351
Nuclear contribution   :     -0.06865       0.14645       0.01806
                        -----------------------------------------
Total Dipole Moment    :      0.01197       0.01504      -0.01545
                        -----------------------------------------
Magnitude (a.u.)       :      0.02466
Magnitude (Debye)      :      0.06269

Rotational constants in cm-1:     9.592597     8.896992     4.620625
Rotational constants in MHz : 287578.832802 266725.121587 138522.848802

                             ****ORCA TERMINATED NORMALLY****
TOTAL RUN TIME: 0 days 0 hours 0 minutes 24 seconds 57 msec
