                         Program Version 5.0.3 -  RELEASE  -
|  1> !B3LYP EPR-III Autoaux
|  2> !PAL4
|  3>
|  4> * xyz 0 2
|  5>  C    -34.1580485495    -53.4706000626    -19.1615013354
|  6>  H    -34.0003470968    -54.5428700323    -19.1433086932
|  7>  H    -33.2563013498    -52.9778560486    -19.3027556944
|  8>  H    -35.1365251331    -53.0216921586    -19.1190498809
|  9> *
| 10>
| 11> %EPRNMR
| 12>         GTENSOR   TRUE
| 13>         NUCLEI    = ALL H {AISO, ADIP, AORB}
| 14>         NUCLEI    = ALL C {AISO, ADIP, AORB}
| 15> END
| 16>
| 17>
| 18>                          ****END OF INPUT****

CARTESIAN COORDINATES (ANGSTROEM)
---------------------------------
  C    -34.158049  -53.470600  -19.161501
  H    -34.000347  -54.542870  -19.143309
  H    -33.256301  -52.977856  -19.302756
  H    -35.136525  -53.021692  -19.119050

 Total Charge           Charge          ....    0
 Multiplicity           Mult            ....    2
 Number of Electrons    NEL             ....    9
 Basis Dimension        Dim             ....   73

ORBITAL ENERGIES
----------------
                 SPIN UP ORBITALS
  NO   OCC          E(Eh)            E(eV)
   0   1.0000     -10.179906      -277.0093
   1   1.0000      -0.692125       -18.8337
   2   1.0000      -0.439744       -11.9660
   3   1.0000      -0.410993       -11.1837
   4   1.0000      -0.234888        -6.3916
   5   0.0000       0.001354         0.0368
   6   0.0000       0.035229         0.9586
   7   0.0000       0.038301         1.0422
   8   0.0000       0.047554         1.2940
   9   0.0000       0.090032         2.4499

                 SPIN DOWN ORBITALS
  NO   OCC          E(Eh)            E(eV)
   0   1.0000     -10.165550      -276.6187
   1   1.0000      -0.652934       -17.7672
   2   1.0000      -0.430259       -11.7079
   3   1.0000      -0.401152       -10.9159
   4   0.0000      -0.077574        -2.1109
   5   0.0000       0.004362         0.1187
   6   0.0000       0.034864         0.9487
   7   0.0000       0.037854         1.0301
   8   0.0000       0.060764         1.6535

MULLIKEN ATOMIC CHARGES AND SPIN POPULATIONS
--------------------------------------------
   0 C :   -0.429086    1.100964
   1 H :    0.135901   -0.035375
   2 H :    0.144016   -0.032486
   3 H :    0.149169   -0.033103
Sum of atomic charges         :    0.0000000

LOEWDIN ATOMIC CHARGES AND SPIN POPULATIONS
-------------------------------------------
   0 C :   -0.137499    0.901141
   1 H :    0.053957    0.030191
   2 H :    0.030567    0.037933
   3 H :    0.052976    0.030735

  Mayer bond orders larger than 0.100000
B(  0-C ,  1-H ) :   0.9807 B(  0-C ,  2-H ) :   0.9799 B(  0-C ,  3-H ) :   0.9781

FINAL SINGLE POINT ENERGY       -39.825437497421

DIPOLE MOMENT
-------------
                                X             Y             Z
Electronic contribution:     -0.04988       0.09226       0.03660
Nuclear contribution   :      0.06069      -0.09790      -0.06042
                        -----------------------------------------
Total Dipole Moment    :      0.01080      -0.00563      -0.02382
                        -----------------------------------------
Magnitude (a.u.)       :      0.02675
Magnitude (Debye)      :      0.06800

Rotational constants in cm-1:    11.024976     8.828256     4.907384
Rotational constants in MHz : 330520.458945 264664.453851 147119.660870

                             ****ORCA TERMINATED NORMALLY****
TOTAL RUN TIME: 0 days 0 hours 0 minutes 22 seconds 535 msec
