                         Program Version 5.0.3 -  RELEASE  -
|  1> !B3LYP EPR-III Autoaux
|  2> !PAL4
|  3>
|  4> * xyz 0 2
|  5>  C      1.9707406495    -12.6311231316     -9.8917261953
|  6>  H      2.2403964928    -12.1701305232     -8.9447654417
|  7>  H      1.1665243491    -12.4114219565    -10.5110782013
|  8>  H      2.5110970581    -13.5253744698    -10.0318941722
|  9> *
| 10>
| 11> %EPRNMR
| 12>         GTENSOR   TRUE
| 13>         NUCLEI    = ALL H {AISO, ADIP, AORB}
| 14>         NUCLEI    = ALL C {AISO, ADIP, AORB}
| 15> END
| 16>
| 17>
| 18>                          ****END OF INPUT****

CARTESIAN COORDINATES (ANGSTROEM)
---------------------------------
  C      1.970741  -12.631123   -9.891726
  H      2.240396  -12.170131   -8.944765
  H      1.166524  -12.411422  -10.511078
  H      2.511097  -13.525374  -10.031894

 Total Charge           Charge          ....    0
 Multiplicity           Mult            ....    2
 Number of Electrons    NEL             ....    9
 Basis Dimension        Dim             ....   73

ORBITAL ENERGIES
----------------
                 SPIN UP ORBITALS
  NO   OCC          E(Eh)            E(eV)
   0   1.0000     -10.178516      -276.9715
   1   1.0000      -0.694134       -18.8884
   2   1.0000      -0.443177       -12.0595
   3   1.0000      -0.409889       -11.1537
   4   1.0000      -0.236156        -6.4261
   5   0.0000       0.001400         0.0381
   6   0.0000       0.035103         0.9552
   7   0.0000       0.038534         1.0486
   8   0.0000       0.047445         1.2911
   9   0.0000       0.087705         2.3866

                 SPIN DOWN ORBITALS
  NO   OCC          E(Eh)            E(eV)
   0   1.0000     -10.164202      -276.5820
   1   1.0000      -0.655236       -17.8299
   2   1.0000      -0.433579       -11.7983
   3   1.0000      -0.399980       -10.8840
   4   0.0000      -0.078454        -2.1348
   5   0.0000       0.004311         0.1173
   6   0.0000       0.034707         0.9444
   7   0.0000       0.038066         1.0358
   8   0.0000       0.060584         1.6486

MULLIKEN ATOMIC CHARGES AND SPIN POPULATIONS
--------------------------------------------
   0 C :   -0.428193    1.097185
   1 H :    0.141105   -0.034484
   2 H :    0.150637   -0.029868
   3 H :    0.136451   -0.032833
Sum of atomic charges         :    0.0000000

LOEWDIN ATOMIC CHARGES AND SPIN POPULATIONS
-------------------------------------------
   0 C :   -0.131997    0.898081
   1 H :    0.057963    0.029415
   2 H :    0.033988    0.037361
   3 H :    0.040046    0.035142

  Mayer bond orders larger than 0.100000
B(  0-C ,  1-H ) :   0.9806 B(  0-C ,  2-H ) :   0.9799 B(  0-C ,  3-H ) :   0.9812

FINAL SINGLE POINT ENERGY       -39.824743807843

DIPOLE MOMENT
-------------
                                X             Y             Z
Electronic contribution:     -0.03160       0.11206      -0.10839
Nuclear contribution   :      0.00434      -0.16006       0.14048
                        -----------------------------------------
Total Dipole Moment    :     -0.02725      -0.04800       0.03209
                        -----------------------------------------
Magnitude (a.u.)       :      0.06385
Magnitude (Debye)      :      0.16229

Rotational constants in cm-1:    11.007355     8.995267     4.985541
Rotational constants in MHz : 329992.209462 269671.331202 149462.761799

                             ****ORCA TERMINATED NORMALLY****
TOTAL RUN TIME: 0 days 0 hours 0 minutes 23 seconds 686 msec
