                         Program Version 5.0.3 -  RELEASE  -
|  1> !B3LYP EPR-III Autoaux
|  2> !PAL4
|  3>
|  4> * xyz 0 2
|  5>  C    -18.2672673369    -35.5627670712    -15.1086847002
|  6>  H    -17.6808074204    -34.7561790069    -15.3781397215
|  7>  H    -19.2877872871    -35.6013555680    -14.5716652287
|  8>  H    -17.7816455987    -36.5438910965    -15.4405645770
|  9> *
| 10>
| 11> %EPRNMR
| 12>         GTENSOR   TRUE
| 13>         NUCLEI    = ALL H {AISO, ADIP, AORB}
| 14>         NUCLEI    = ALL C {AISO, ADIP, AORB}
| 15> END
| 16>
| 17>
| 18>                          ****END OF INPUT****

CARTESIAN COORDINATES (ANGSTROEM)
---------------------------------
  C    -18.267267  -35.562767  -15.108685
  H    -17.680807  -34.756179  -15.378140
  H    -19.287787  -35.601356  -14.571665
  H    -17.781646  -36.543891  -15.440565

 Total Charge           Charge          ....    0
 Multiplicity           Mult            ....    2
 Number of Electrons    NEL             ....    9
 Basis Dimension        Dim             ....   73

ORBITAL ENERGIES
----------------
                 SPIN UP ORBITALS
  NO   OCC          E(Eh)            E(eV)
   0   1.0000     -10.192964      -277.3646
   1   1.0000      -0.681995       -18.5580
   2   1.0000      -0.433407       -11.7936
   3   1.0000      -0.398116       -10.8333
   4   1.0000      -0.235149        -6.3987
   5   0.0000      -0.000486        -0.0132
   6   0.0000       0.034582         0.9410
   7   0.0000       0.038370         1.0441
   8   0.0000       0.047300         1.2871
   9   0.0000       0.078470         2.1353

                 SPIN DOWN ORBITALS
  NO   OCC          E(Eh)            E(eV)
   0   1.0000     -10.178332      -276.9665
   1   1.0000      -0.642319       -17.4784
   2   1.0000      -0.424110       -11.5406
   3   1.0000      -0.388910       -10.5828
   4   0.0000      -0.077188        -2.1004
   5   0.0000       0.003024         0.0823
   6   0.0000       0.034368         0.9352
   7   0.0000       0.038031         1.0349
   8   0.0000       0.060624         1.6497

MULLIKEN ATOMIC CHARGES AND SPIN POPULATIONS
--------------------------------------------
   0 C :   -0.430770    1.110353
   1 H :    0.151272   -0.032063
   2 H :    0.149645   -0.038960
   3 H :    0.129852   -0.039330
Sum of atomic charges         :   -0.0000000

LOEWDIN ATOMIC CHARGES AND SPIN POPULATIONS
-------------------------------------------
   0 C :   -0.172399    0.920137
   1 H :    0.020371    0.039408
   2 H :    0.080472    0.019029
   3 H :    0.071556    0.021427

  Mayer bond orders larger than 0.100000
B(  0-C ,  1-H ) :   0.9736 B(  0-C ,  2-H ) :   0.9705 B(  0-C ,  3-H ) :   0.9762

FINAL SINGLE POINT ENERGY       -39.819011556529

DIPOLE MOMENT
-------------
                                X             Y             Z
Electronic contribution:     -0.03203       0.16142       0.03849
Nuclear contribution   :      0.03864      -0.15973      -0.04820
                        -----------------------------------------
Total Dipole Moment    :      0.00662       0.00169      -0.00971
                        -----------------------------------------
Magnitude (a.u.)       :      0.01187
Magnitude (Debye)      :      0.03018

Rotational constants in cm-1:    10.342348     8.014802     4.515767
Rotational constants in MHz : 310055.786151 240277.712605 135379.302552

                             ****ORCA TERMINATED NORMALLY****
TOTAL RUN TIME: 0 days 0 hours 0 minutes 18 seconds 939 msec
