                         Program Version 5.0.3 -  RELEASE  -
|  1> !B3LYP EPR-III Autoaux
|  2> !PAL4
|  3>
|  4> * xyz 0 2
|  5>  C    -12.0391024277    -28.5680269859    -13.4961973565
|  6>  H    -12.0259357095    -29.6133194426    -13.9399312728
|  7>  H    -11.2261389238    -28.3553686415    -12.8975394217
|  8>  H    -12.7636019939    -27.9120265318    -13.8264524499
|  9> *
| 10>
| 11> %EPRNMR
| 12>         GTENSOR   TRUE
| 13>         NUCLEI    = ALL H {AISO, ADIP, AORB}
| 14>         NUCLEI    = ALL C {AISO, ADIP, AORB}
| 15> END
| 16>
| 17>
| 18>                          ****END OF INPUT****

CARTESIAN COORDINATES (ANGSTROEM)
---------------------------------
  C    -12.039102  -28.568027  -13.496197
  H    -12.025936  -29.613319  -13.939931
  H    -11.226139  -28.355369  -12.897539
  H    -12.763602  -27.912027  -13.826452

 Total Charge           Charge          ....    0
 Multiplicity           Mult            ....    2
 Number of Electrons    NEL             ....    9
 Basis Dimension        Dim             ....   73

ORBITAL ENERGIES
----------------
                 SPIN UP ORBITALS
  NO   OCC          E(Eh)            E(eV)
   0   1.0000     -10.180063      -277.0136
   1   1.0000      -0.692684       -18.8489
   2   1.0000      -0.445865       -12.1326
   3   1.0000      -0.405929       -11.0459
   4   1.0000      -0.235599        -6.4110
   5   0.0000       0.001278         0.0348
   6   0.0000       0.035256         0.9594
   7   0.0000       0.038270         1.0414
   8   0.0000       0.047513         1.2929
   9   0.0000       0.086835         2.3629

                 SPIN DOWN ORBITALS
  NO   OCC          E(Eh)            E(eV)
   0   1.0000     -10.165683      -276.6223
   1   1.0000      -0.653429       -17.7807
   2   1.0000      -0.436000       -11.8642
   3   1.0000      -0.396511       -10.7896
   4   0.0000      -0.077950        -2.1211
   5   0.0000       0.004273         0.1163
   6   0.0000       0.034863         0.9487
   7   0.0000       0.037889         1.0310
   8   0.0000       0.060690         1.6515

MULLIKEN ATOMIC CHARGES AND SPIN POPULATIONS
--------------------------------------------
   0 C :   -0.427144    1.099777
   1 H :    0.129606   -0.038093
   2 H :    0.147740   -0.031183
   3 H :    0.149797   -0.030502
Sum of atomic charges         :    0.0000000

LOEWDIN ATOMIC CHARGES AND SPIN POPULATIONS
-------------------------------------------
   0 C :   -0.132804    0.900456
   1 H :    0.075865    0.022130
   2 H :    0.028293    0.038730
   3 H :    0.028646    0.038684

  Mayer bond orders larger than 0.100000
B(  0-C ,  1-H ) :   0.9808 B(  0-C ,  2-H ) :   0.9794 B(  0-C ,  3-H ) :   0.9792

FINAL SINGLE POINT ENERGY       -39.822869064573

DIPOLE MOMENT
-------------
                                X             Y             Z
Electronic contribution:     -0.05020       0.14664       0.10322
Nuclear contribution   :      0.07617      -0.13238      -0.13141
                        -----------------------------------------
Total Dipole Moment    :      0.02597       0.01425      -0.02819
                        -----------------------------------------
Magnitude (a.u.)       :      0.04089
Magnitude (Debye)      :      0.10394

Rotational constants in cm-1:    10.041823     9.537173     4.906626
Rotational constants in MHz : 301046.288245 285917.255185 147096.933210

                             ****ORCA TERMINATED NORMALLY****
TOTAL RUN TIME: 0 days 0 hours 0 minutes 22 seconds 513 msec
