                         Program Version 5.0.3 -  RELEASE  -
|  1> !B3LYP EPR-III Autoaux
|  2> !PAL4
|  3>
|  4> * xyz 0 2
|  5>  C    -46.8429182681    -67.6952764775    -22.3673948631
|  6>  H    -47.7633041272    -68.3356076917    -22.3619580998
|  7>  H    -45.8323948684    -67.9634231507    -22.5239525837
|  8>  H    -46.9590557204    -66.5631190721    -22.2696874047
|  9> *
| 10>
| 11> %EPRNMR
| 12>         GTENSOR   TRUE
| 13>         NUCLEI    = ALL H {AISO, ADIP, AORB}
| 14>         NUCLEI    = ALL C {AISO, ADIP, AORB}
| 15> END
| 16>
| 17>
| 18>                          ****END OF INPUT****

CARTESIAN COORDINATES (ANGSTROEM)
---------------------------------
  C    -46.842918  -67.695276  -22.367395
  H    -47.763304  -68.335608  -22.361958
  H    -45.832395  -67.963423  -22.523953
  H    -46.959056  -66.563119  -22.269687

 Total Charge           Charge          ....    0
 Multiplicity           Mult            ....    2
 Number of Electrons    NEL             ....    9
 Basis Dimension        Dim             ....   73

ORBITAL ENERGIES
----------------
                 SPIN UP ORBITALS
  NO   OCC          E(Eh)            E(eV)
   0   1.0000     -10.192238      -277.3449
   1   1.0000      -0.681591       -18.5470
   2   1.0000      -0.434191       -11.8150
   3   1.0000      -0.399213       -10.8632
   4   1.0000      -0.235193        -6.3999
   5   0.0000      -0.000136        -0.0037
   6   0.0000       0.034777         0.9463
   7   0.0000       0.038376         1.0443
   8   0.0000       0.047327         1.2878
   9   0.0000       0.081973         2.2306

                 SPIN DOWN ORBITALS
  NO   OCC          E(Eh)            E(eV)
   0   1.0000     -10.177635      -276.9475
   1   1.0000      -0.641902       -17.4670
   2   1.0000      -0.424996       -11.5647
   3   1.0000      -0.389942       -10.6108
   4   0.0000      -0.077289        -2.1031
   5   0.0000       0.003287         0.0894
   6   0.0000       0.034498         0.9387
   7   0.0000       0.038031         1.0349
   8   0.0000       0.060641         1.6501

MULLIKEN ATOMIC CHARGES AND SPIN POPULATIONS
--------------------------------------------
   0 C :   -0.429273    1.108839
   1 H :    0.150006   -0.036427
   2 H :    0.148841   -0.033365
   3 H :    0.130426   -0.039046
Sum of atomic charges         :    0.0000000

LOEWDIN ATOMIC CHARGES AND SPIN POPULATIONS
-------------------------------------------
   0 C :   -0.171945    0.919045
   1 H :    0.066687    0.024224
   2 H :    0.034120    0.035084
   3 H :    0.071138    0.021647

  Mayer bond orders larger than 0.100000
B(  0-C ,  1-H ) :   0.9718 B(  0-C ,  2-H ) :   0.9739 B(  0-C ,  3-H ) :   0.9763

FINAL SINGLE POINT ENERGY       -39.822867104772

DIPOLE MOMENT
-------------
                                X             Y             Z
Electronic contribution:      0.02463      -0.16087       0.01845
Nuclear contribution   :     -0.01949       0.16764      -0.04003
                        -----------------------------------------
Total Dipole Moment    :      0.00514       0.00678      -0.02158
                        -----------------------------------------
Magnitude (a.u.)       :      0.02320
Magnitude (Debye)      :      0.05897

Rotational constants in cm-1:    10.095658     8.275029     4.551483
Rotational constants in MHz : 302660.207800 248079.122495 136450.022410

                             ****ORCA TERMINATED NORMALLY****
TOTAL RUN TIME: 0 days 0 hours 0 minutes 21 seconds 445 msec
