                         Program Version 5.0.3 -  RELEASE  -
|  1> !B3LYP EPR-III Autoaux
|  2> !PAL4
|  3>
|  4> * xyz 0 2
|  5>  C    -14.0952157995    -30.9403564530    -14.0474276058
|  6>  H    -14.1277551428    -29.8379139784    -14.2485444941
|  7>  H    -14.9728199086    -31.3753226756    -14.3501751687
|  8>  H    -13.3917228161    -31.4564366595    -13.4663401527
|  9> *
| 10>
| 11> %EPRNMR
| 12>         GTENSOR   TRUE
| 13>         NUCLEI    = ALL H {AISO, ADIP, AORB}
| 14>         NUCLEI    = ALL C {AISO, ADIP, AORB}
| 15> END
| 16>
| 17>
| 18>                          ****END OF INPUT****

CARTESIAN COORDINATES (ANGSTROEM)
---------------------------------
  C    -14.095216  -30.940356  -14.047428
  H    -14.127755  -29.837914  -14.248544
  H    -14.972820  -31.375323  -14.350175
  H    -13.391723  -31.456437  -13.466340

 Total Charge           Charge          ....    0
 Multiplicity           Mult            ....    2
 Number of Electrons    NEL             ....    9
 Basis Dimension        Dim             ....   73

ORBITAL ENERGIES
----------------
                 SPIN UP ORBITALS
  NO   OCC          E(Eh)            E(eV)
   0   1.0000     -10.179508      -276.9985
   1   1.0000      -0.693384       -18.8679
   2   1.0000      -0.442281       -12.0351
   3   1.0000      -0.408445       -11.1144
   4   1.0000      -0.235913        -6.4195
   5   0.0000       0.001224         0.0333
   6   0.0000       0.035117         0.9556
   7   0.0000       0.038501         1.0477
   8   0.0000       0.047527         1.2933
   9   0.0000       0.085183         2.3180

                 SPIN DOWN ORBITALS
  NO   OCC          E(Eh)            E(eV)
   0   1.0000     -10.165126      -276.6071
   1   1.0000      -0.654357       -17.8059
   2   1.0000      -0.432616       -11.7721
   3   1.0000      -0.398629       -10.8472
   4   0.0000      -0.078142        -2.1264
   5   0.0000       0.004206         0.1144
   6   0.0000       0.034757         0.9458
   7   0.0000       0.038082         1.0363
   8   0.0000       0.060694         1.6516

MULLIKEN ATOMIC CHARGES AND SPIN POPULATIONS
--------------------------------------------
   0 C :   -0.428190    1.099208
   1 H :    0.136420   -0.037152
   2 H :    0.141536   -0.031494
   3 H :    0.150234   -0.030562
Sum of atomic charges         :    0.0000000

LOEWDIN ATOMIC CHARGES AND SPIN POPULATIONS
-------------------------------------------
   0 C :   -0.134057    0.900061
   1 H :    0.071911    0.024106
   2 H :    0.023596    0.040109
   3 H :    0.038551    0.035723

  Mayer bond orders larger than 0.100000
B(  0-C ,  1-H ) :   0.9804 B(  0-C ,  2-H ) :   0.9800 B(  0-C ,  3-H ) :   0.9792

FINAL SINGLE POINT ENERGY       -39.822611504798

DIPOLE MOMENT
-------------
                                X             Y             Z
Electronic contribution:      0.10943      -0.11193      -0.01843
Nuclear contribution   :     -0.15488       0.11347       0.05788
                        -----------------------------------------
Total Dipole Moment    :     -0.04546       0.00154       0.03945
                        -----------------------------------------
Magnitude (a.u.)       :      0.06021
Magnitude (Debye)      :      0.15303

Rotational constants in cm-1:    11.160879     8.739608     4.930299
Rotational constants in MHz : 334594.745391 262006.867443 147806.639407

                             ****ORCA TERMINATED NORMALLY****
TOTAL RUN TIME: 0 days 0 hours 0 minutes 25 seconds 38 msec
