                         Program Version 5.0.3 -  RELEASE  -
|  1> !B3LYP EPR-III Autoaux
|  2> !PAL4
|  3>
|  4> * xyz 0 2
|  5>  C     -6.0599529884    -21.8058362287    -11.9645543685
|  6>  H     -5.0723567667    -21.3432441636    -12.2310864524
|  7>  H     -6.6004912250    -21.5052175510    -11.1106203221
|  8>  H     -6.4842613625    -22.6217453330    -12.4468750987
|  9> *
| 10>
| 11> %EPRNMR
| 12>         GTENSOR   TRUE
| 13>         NUCLEI    = ALL H {AISO, ADIP, AORB}
| 14>         NUCLEI    = ALL C {AISO, ADIP, AORB}
| 15> END
| 16>
| 17>
| 18>                          ****END OF INPUT****

CARTESIAN COORDINATES (ANGSTROEM)
---------------------------------
  C     -6.059953  -21.805836  -11.964554
  H     -5.072357  -21.343244  -12.231086
  H     -6.600491  -21.505218  -11.110620
  H     -6.484261  -22.621745  -12.446875

 Total Charge           Charge          ....    0
 Multiplicity           Mult            ....    2
 Number of Electrons    NEL             ....    9
 Basis Dimension        Dim             ....   73

ORBITAL ENERGIES
----------------
                 SPIN UP ORBITALS
  NO   OCC          E(Eh)            E(eV)
   0   1.0000     -10.181667      -277.0572
   1   1.0000      -0.691202       -18.8086
   2   1.0000      -0.429171       -11.6783
   3   1.0000      -0.419115       -11.4047
   4   1.0000      -0.235039        -6.3957
   5   0.0000       0.001041         0.0283
   6   0.0000       0.035828         0.9749
   7   0.0000       0.037638         1.0242
   8   0.0000       0.047419         1.2903
   9   0.0000       0.085462         2.3255

                 SPIN DOWN ORBITALS
  NO   OCC          E(Eh)            E(eV)
   0   1.0000     -10.167315      -276.6667
   1   1.0000      -0.652073       -17.7438
   2   1.0000      -0.419821       -11.4239
   3   1.0000      -0.409234       -11.1358
   4   0.0000      -0.077671        -2.1135
   5   0.0000       0.004112         0.1119
   6   0.0000       0.035477         0.9654
   7   0.0000       0.037172         1.0115
   8   0.0000       0.060637         1.6500

MULLIKEN ATOMIC CHARGES AND SPIN POPULATIONS
--------------------------------------------
   0 C :   -0.429072    1.100982
   1 H :    0.144720   -0.036078
   2 H :    0.140004   -0.033002
   3 H :    0.144348   -0.031902
Sum of atomic charges         :    0.0000000

LOEWDIN ATOMIC CHARGES AND SPIN POPULATIONS
-------------------------------------------
   0 C :   -0.141235    0.903134
   1 H :    0.072482    0.023720
   2 H :    0.038417    0.035251
   3 H :    0.030336    0.037894

  Mayer bond orders larger than 0.100000
B(  0-C ,  1-H ) :   0.9768 B(  0-C ,  2-H ) :   0.9795 B(  0-C ,  3-H ) :   0.9791

FINAL SINGLE POINT ENERGY       -39.824762776838

DIPOLE MOMENT
-------------
                                X             Y             Z
Electronic contribution:     -0.01479       0.01531      -0.05539
Nuclear contribution   :      0.01705      -0.03950       0.07876
                        -----------------------------------------
Total Dipole Moment    :      0.00226      -0.02418       0.02336
                        -----------------------------------------
Magnitude (a.u.)       :      0.03370
Magnitude (Debye)      :      0.08566

Rotational constants in cm-1:    10.960991     8.679583     4.852365
Rotational constants in MHz : 328602.236954 260207.338443 145470.239026

                             ****ORCA TERMINATED NORMALLY****
TOTAL RUN TIME: 0 days 0 hours 0 minutes 21 seconds 466 msec
