                         Program Version 5.0.3 -  RELEASE  -
|  1> !B3LYP EPR-III Autoaux
|  2> !PAL4
|  3>
|  4> * xyz 0 2
|  5>  C    -16.5726558132    -33.6891943867    -14.6911728127
|  6>  H    -16.2958335595    -34.7214651342    -14.2837217825
|  7>  H    -15.9237309249    -32.8808882461    -14.5972643584
|  8>  H    -17.5152477948    -33.4473283092    -15.0891438475
|  9> *
| 10>
| 11> %EPRNMR
| 12>         GTENSOR   TRUE
| 13>         NUCLEI    = ALL H {AISO, ADIP, AORB}
| 14>         NUCLEI    = ALL C {AISO, ADIP, AORB}
| 15> END
| 16>
| 17>
| 18>                          ****END OF INPUT****

CARTESIAN COORDINATES (ANGSTROEM)
---------------------------------
  C    -16.572656  -33.689194  -14.691173
  H    -16.295834  -34.721465  -14.283722
  H    -15.923731  -32.880888  -14.597264
  H    -17.515248  -33.447328  -15.089144

 Total Charge           Charge          ....    0
 Multiplicity           Mult            ....    2
 Number of Electrons    NEL             ....    9
 Basis Dimension        Dim             ....   73

ORBITAL ENERGIES
----------------
                 SPIN UP ORBITALS
  NO   OCC          E(Eh)            E(eV)
   0   1.0000     -10.183332      -277.1026
   1   1.0000      -0.689583       -18.7645
   2   1.0000      -0.424157       -11.5419
   3   1.0000      -0.421089       -11.4584
   4   1.0000      -0.234986        -6.3943
   5   0.0000       0.000830         0.0226
   6   0.0000       0.036118         0.9828
   7   0.0000       0.037348         1.0163
   8   0.0000       0.047494         1.2924
   9   0.0000       0.083106         2.2614

                 SPIN DOWN ORBITALS
  NO   OCC          E(Eh)            E(eV)
   0   1.0000     -10.168897      -276.7098
   1   1.0000      -0.650305       -17.6957
   2   1.0000      -0.414597       -11.2818
   3   1.0000      -0.411505       -11.1976
   4   0.0000      -0.077447        -2.1074
   5   0.0000       0.003981         0.1083
   6   0.0000       0.035825         0.9748
   7   0.0000       0.036923         1.0047
   8   0.0000       0.060739         1.6528

MULLIKEN ATOMIC CHARGES AND SPIN POPULATIONS
--------------------------------------------
   0 C :   -0.428034    1.102788
   1 H :    0.142196   -0.037965
   2 H :    0.142434   -0.032180
   3 H :    0.143404   -0.032643
Sum of atomic charges         :   -0.0000000

LOEWDIN ATOMIC CHARGES AND SPIN POPULATIONS
-------------------------------------------
   0 C :   -0.145705    0.906104
   1 H :    0.079676    0.020506
   2 H :    0.029908    0.037654
   3 H :    0.036121    0.035736

  Mayer bond orders larger than 0.100000
B(  0-C ,  1-H ) :   0.9760 B(  0-C ,  2-H ) :   0.9784 B(  0-C ,  3-H ) :   0.9784

FINAL SINGLE POINT ENERGY       -39.823908658222

DIPOLE MOMENT
-------------
                                X             Y             Z
Electronic contribution:      0.00244       0.00934      -0.05469
Nuclear contribution   :     -0.01262       0.01342       0.07749
                        -----------------------------------------
Total Dipole Moment    :     -0.01019       0.02276       0.02280
                        -----------------------------------------
Magnitude (a.u.)       :      0.03379
Magnitude (Debye)      :      0.08588

Rotational constants in cm-1:    10.810183     8.567859     4.787475
Rotational constants in MHz : 324081.118408 256857.955561 143524.885807

                             ****ORCA TERMINATED NORMALLY****
TOTAL RUN TIME: 0 days 0 hours 0 minutes 40 seconds 223 msec
