                         Program Version 5.0.3 -  RELEASE  -
|  1> !B3LYP EPR-III Autoaux
|  2> !PAL4
|  3>
|  4> * xyz 0 2
|  5>  C     12.3409946016     -0.8989846770     -7.2276257341
|  6>  H     13.2274741121     -1.3488421525     -6.7989433440
|  7>  H     11.8062790280     -0.1151555913     -6.6039470408
|  8>  H     12.1413874283     -0.9606104935     -8.3009590116
|  9> *
| 10>
| 11> %EPRNMR
| 12>         GTENSOR   TRUE
| 13>         NUCLEI    = ALL H {AISO, ADIP, AORB}
| 14>         NUCLEI    = ALL C {AISO, ADIP, AORB}
| 15> END
| 16>
| 17>
| 18>                          ****END OF INPUT****

CARTESIAN COORDINATES (ANGSTROEM)
---------------------------------
  C     12.340995   -0.898985   -7.227626
  H     13.227474   -1.348842   -6.798943
  H     11.806279   -0.115156   -6.603947
  H     12.141387   -0.960610   -8.300959

 Total Charge           Charge          ....    0
 Multiplicity           Mult            ....    2
 Number of Electrons    NEL             ....    9
 Basis Dimension        Dim             ....   73

ORBITAL ENERGIES
----------------
                 SPIN UP ORBITALS
  NO   OCC          E(Eh)            E(eV)
   0   1.0000     -10.191625      -277.3282
   1   1.0000      -0.681853       -18.5542
   2   1.0000      -0.423466       -11.5231
   3   1.0000      -0.410493       -11.1701
   4   1.0000      -0.237288        -6.4569
   5   0.0000       0.000087         0.0024
   6   0.0000       0.036424         0.9912
   7   0.0000       0.037345         1.0162
   8   0.0000       0.047305         1.2872
   9   0.0000       0.085953         2.3389

                 SPIN DOWN ORBITALS
  NO   OCC          E(Eh)            E(eV)
   0   1.0000     -10.177001      -276.9303
   1   1.0000      -0.642559       -17.4849
   2   1.0000      -0.413960       -11.2644
   3   1.0000      -0.401226       -10.9179
   4   0.0000      -0.078496        -2.1360
   5   0.0000       0.003350         0.0912
   6   0.0000       0.036097         0.9823
   7   0.0000       0.037040         1.0079
   8   0.0000       0.060520         1.6468

MULLIKEN ATOMIC CHARGES AND SPIN POPULATIONS
--------------------------------------------
   0 C :   -0.422292    1.101973
   1 H :    0.142333   -0.032733
   2 H :    0.136644   -0.036166
   3 H :    0.143316   -0.033074
Sum of atomic charges         :    0.0000000

LOEWDIN ATOMIC CHARGES AND SPIN POPULATIONS
-------------------------------------------
   0 C :   -0.169450    0.916972
   1 H :    0.046797    0.031030
   2 H :    0.070179    0.022753
   3 H :    0.052474    0.029245

  Mayer bond orders larger than 0.100000
B(  0-C ,  1-H ) :   0.9745 B(  0-C ,  2-H ) :   0.9748 B(  0-C ,  3-H ) :   0.9741

FINAL SINGLE POINT ENERGY       -39.826417864454

DIPOLE MOMENT
-------------
                                X             Y             Z
Electronic contribution:     -0.05935      -0.14604      -0.00487
Nuclear contribution   :      0.11404       0.20412      -0.01572
                        -----------------------------------------
Total Dipole Moment    :      0.05469       0.05808      -0.02059
                        -----------------------------------------
Magnitude (a.u.)       :      0.08239
Magnitude (Debye)      :      0.20942

Rotational constants in cm-1:     9.314807     8.898838     4.612120
Rotational constants in MHz : 279250.901001 266780.446882 138267.890215

                             ****ORCA TERMINATED NORMALLY****
TOTAL RUN TIME: 0 days 0 hours 0 minutes 21 seconds 476 msec
