                         Program Version 5.0.3 -  RELEASE  -
|  1> !B3LYP EPR-III Autoaux
|  2> !PAL4
|  3>
|  4> * xyz 0 2
|  5>  C    -91.3522511676   -120.4566651205    -32.9172731733
|  6>  H    -91.9417508247   -121.4680396420    -33.0352890853
|  7>  H    -90.2024446261   -120.4158697404    -32.8659842156
|  8>  H    -92.0261855371   -119.6265238915    -32.8942094318
|  9> *
| 10>
| 11> %EPRNMR
| 12>         GTENSOR   TRUE
| 13>         NUCLEI    = ALL H {AISO, ADIP, AORB}
| 14>         NUCLEI    = ALL C {AISO, ADIP, AORB}
| 15> END
| 16>
| 17>
| 18>                          ****END OF INPUT****

CARTESIAN COORDINATES (ANGSTROEM)
---------------------------------
  C    -91.352251  -120.456665  -32.917273
  H    -91.941751  -121.468040  -33.035289
  H    -90.202445  -120.415870  -32.865984
  H    -92.026186  -119.626524  -32.894209

 Total Charge           Charge          ....    0
 Multiplicity           Mult            ....    2
 Number of Electrons    NEL             ....    9
 Basis Dimension        Dim             ....   73

ORBITAL ENERGIES
----------------
                 SPIN UP ORBITALS
  NO   OCC          E(Eh)            E(eV)
   0   1.0000     -10.199473      -277.5418
   1   1.0000      -0.675349       -18.3772
   2   1.0000      -0.426308       -11.6004
   3   1.0000      -0.396428       -10.7873
   4   1.0000      -0.235174        -6.3994
   5   0.0000      -0.001557        -0.0424
   6   0.0000       0.034834         0.9479
   7   0.0000       0.038060         1.0357
   8   0.0000       0.047193         1.2842
   9   0.0000       0.077546         2.1101

                 SPIN DOWN ORBITALS
  NO   OCC          E(Eh)            E(eV)
   0   1.0000     -10.184708      -277.1400
   1   1.0000      -0.635322       -17.2880
   2   1.0000      -0.417312       -11.3556
   3   1.0000      -0.387469       -10.5436
   4   0.0000      -0.076929        -2.0934
   5   0.0000       0.002260         0.0615
   6   0.0000       0.034636         0.9425
   7   0.0000       0.037791         1.0284
   8   0.0000       0.060590         1.6488

MULLIKEN ATOMIC CHARGES AND SPIN POPULATIONS
--------------------------------------------
   0 C :   -0.429576    1.114278
   1 H :    0.132333   -0.041499
   2 H :    0.150225   -0.038468
   3 H :    0.147018   -0.034311
Sum of atomic charges         :   -0.0000000

LOEWDIN ATOMIC CHARGES AND SPIN POPULATIONS
-------------------------------------------
   0 C :   -0.192290    0.930161
   1 H :    0.081074    0.016560
   2 H :    0.075908    0.019768
   3 H :    0.035308    0.033512

  Mayer bond orders larger than 0.100000
B(  0-C ,  1-H ) :   0.9721 B(  0-C ,  2-H ) :   0.9673 B(  0-C ,  3-H ) :   0.9702

FINAL SINGLE POINT ENERGY       -39.818629973052

DIPOLE MOMENT
-------------
                                X             Y             Z
Electronic contribution:      0.07652       0.11744       0.02593
Nuclear contribution   :     -0.08516      -0.10526      -0.03272
                        -----------------------------------------
Total Dipole Moment    :     -0.00864       0.01218      -0.00679
                        -----------------------------------------
Magnitude (a.u.)       :      0.01641
Magnitude (Debye)      :      0.04171

Rotational constants in cm-1:     9.812390     7.785656     4.341588
Rotational constants in MHz : 294168.061112 233408.089909 130157.527456

                             ****ORCA TERMINATED NORMALLY****
TOTAL RUN TIME: 0 days 0 hours 0 minutes 33 seconds 382 msec
