                         Program Version 5.0.3 -  RELEASE  -
|  1> !B3LYP EPR-III Autoaux
|  2> !PAL4
|  3>
|  4> * xyz 0 2
|  5>  C    -90.5830519033   -119.4690743061    -32.7631094324
|  6>  H    -91.5073851377   -119.9957847573    -32.8549646527
|  7>  H    -89.6757934431   -120.0239366923    -32.7744713063
|  8>  H    -90.4664569463   -118.4590164082    -32.6807316072
|  9> *
| 10>
| 11> %EPRNMR
| 12>         GTENSOR   TRUE
| 13>         NUCLEI    = ALL H {AISO, ADIP, AORB}
| 14>         NUCLEI    = ALL C {AISO, ADIP, AORB}
| 15> END
| 16>
| 17>
| 18>                          ****END OF INPUT****

CARTESIAN COORDINATES (ANGSTROEM)
---------------------------------
  C    -90.583052  -119.469074  -32.763109
  H    -91.507385  -119.995785  -32.854965
  H    -89.675793  -120.023937  -32.774471
  H    -90.466457  -118.459016  -32.680732

 Total Charge           Charge          ....    0
 Multiplicity           Mult            ....    2
 Number of Electrons    NEL             ....    9
 Basis Dimension        Dim             ....   73

ORBITAL ENERGIES
----------------
                 SPIN UP ORBITALS
  NO   OCC          E(Eh)            E(eV)
   0   1.0000     -10.174954      -276.8746
   1   1.0000      -0.696111       -18.9421
   2   1.0000      -0.440033       -11.9739
   3   1.0000      -0.418464       -11.3870
   4   1.0000      -0.234638        -6.3848
   5   0.0000       0.001824         0.0496
   6   0.0000       0.035759         0.9730
   7   0.0000       0.037891         1.0311
   8   0.0000       0.047640         1.2963
   9   0.0000       0.091919         2.5012

                 SPIN DOWN ORBITALS
  NO   OCC          E(Eh)            E(eV)
   0   1.0000     -10.160691      -276.4865
   1   1.0000      -0.656989       -17.8776
   2   1.0000      -0.430307       -11.7093
   3   1.0000      -0.408618       -11.1191
   4   0.0000      -0.077593        -2.1114
   5   0.0000       0.004715         0.1283
   6   0.0000       0.035347         0.9618
   7   0.0000       0.037429         1.0185
   8   0.0000       0.060816         1.6549

MULLIKEN ATOMIC CHARGES AND SPIN POPULATIONS
--------------------------------------------
   0 C :   -0.428803    1.097824
   1 H :    0.145294   -0.033184
   2 H :    0.136448   -0.033821
   3 H :    0.147061   -0.030818
Sum of atomic charges         :    0.0000000

LOEWDIN ATOMIC CHARGES AND SPIN POPULATIONS
-------------------------------------------
   0 C :   -0.122197    0.893914
   1 H :    0.050643    0.032171
   2 H :    0.046950    0.033344
   3 H :    0.024603    0.040571

  Mayer bond orders larger than 0.100000
B(  0-C ,  1-H ) :   0.9808 B(  0-C ,  2-H ) :   0.9822 B(  0-C ,  3-H ) :   0.9815

FINAL SINGLE POINT ENERGY       -39.825207734758

DIPOLE MOMENT
-------------
                                X             Y             Z
Electronic contribution:     -0.06438       0.05427       0.01044
Nuclear contribution   :      0.07459      -0.05360      -0.01562
                        -----------------------------------------
Total Dipole Moment    :      0.01021       0.00067      -0.00518
                        -----------------------------------------
Magnitude (a.u.)       :      0.01147
Magnitude (Debye)      :      0.02915

Rotational constants in cm-1:    10.856248     9.445563     5.051250
Rotational constants in MHz : 325462.141525 283170.852663 151432.672176

                             ****ORCA TERMINATED NORMALLY****
TOTAL RUN TIME: 0 days 0 hours 0 minutes 32 seconds 619 msec
