                         Program Version 5.0.3 -  RELEASE  -
|  1> !B3LYP EPR-III Autoaux
|  2> !PAL4
|  3>
|  4> * xyz 0 2
|  5>  C    -14.9348187460    -31.8629803369    -14.2665887707
|  6>  H    -16.0082923509    -31.6639060187    -13.9575239197
|  7>  H    -14.8875923185    -32.6951641720    -14.9194247943
|  8>  H    -14.0951032237    -31.3647669099    -13.7898375018
|  9> *
| 10>
| 11> %EPRNMR
| 12>         GTENSOR   TRUE
| 13>         NUCLEI    = ALL H {AISO, ADIP, AORB}
| 14>         NUCLEI    = ALL C {AISO, ADIP, AORB}
| 15> END
| 16>
| 17>
| 18>                          ****END OF INPUT****

CARTESIAN COORDINATES (ANGSTROEM)
---------------------------------
  C    -14.934819  -31.862980  -14.266589
  H    -16.008292  -31.663906  -13.957524
  H    -14.887592  -32.695164  -14.919425
  H    -14.095103  -31.364767  -13.789838

 Total Charge           Charge          ....    0
 Multiplicity           Mult            ....    2
 Number of Electrons    NEL             ....    9
 Basis Dimension        Dim             ....   73

ORBITAL ENERGIES
----------------
                 SPIN UP ORBITALS
  NO   OCC          E(Eh)            E(eV)
   0   1.0000     -10.188337      -277.2387
   1   1.0000      -0.685008       -18.6400
   2   1.0000      -0.436227       -11.8703
   3   1.0000      -0.402677       -10.9574
   4   1.0000      -0.235842        -6.4176
   5   0.0000       0.000420         0.0114
   6   0.0000       0.035081         0.9546
   7   0.0000       0.038364         1.0439
   8   0.0000       0.047384         1.2894
   9   0.0000       0.085314         2.3215

                 SPIN DOWN ORBITALS
  NO   OCC          E(Eh)            E(eV)
   0   1.0000     -10.173802      -276.8432
   1   1.0000      -0.645591       -17.5674
   2   1.0000      -0.426849       -11.6152
   3   1.0000      -0.393238       -10.7006
   4   0.0000      -0.077827        -2.1178
   5   0.0000       0.003653         0.0994
   6   0.0000       0.034761         0.9459
   7   0.0000       0.037997         1.0340
   8   0.0000       0.060633         1.6499

MULLIKEN ATOMIC CHARGES AND SPIN POPULATIONS
--------------------------------------------
   0 C :   -0.427088    1.104324
   1 H :    0.132733   -0.038037
   2 H :    0.144444   -0.033180
   3 H :    0.149910   -0.033107
Sum of atomic charges         :    0.0000000

LOEWDIN ATOMIC CHARGES AND SPIN POPULATIONS
-------------------------------------------
   0 C :   -0.160403    0.912902
   1 H :    0.071057    0.022600
   2 H :    0.036789    0.034682
   3 H :    0.052557    0.029816

  Mayer bond orders larger than 0.100000
B(  0-C ,  1-H ) :   0.9774 B(  0-C ,  2-H ) :   0.9762 B(  0-C ,  3-H ) :   0.9745

FINAL SINGLE POINT ENERGY       -39.824740462889

DIPOLE MOMENT
-------------
                                X             Y             Z
Electronic contribution:      0.13839       0.05918      -0.06883
Nuclear contribution   :     -0.13980      -0.10110       0.09967
                        -----------------------------------------
Total Dipole Moment    :     -0.00141      -0.04192       0.03084
                        -----------------------------------------
Magnitude (a.u.)       :      0.05206
Magnitude (Debye)      :      0.13233

Rotational constants in cm-1:    10.256254     8.521702     4.677233
Rotational constants in MHz : 307474.771917 255474.184943 140219.921233

                             ****ORCA TERMINATED NORMALLY****
TOTAL RUN TIME: 0 days 0 hours 0 minutes 19 seconds 442 msec
