                         Program Version 5.0.3 -  RELEASE  -
|  1> !B3LYP EPR-III Autoaux
|  2> !PAL4
|  3>
|  4> * xyz 0 2
|  5>  C     -1.9891791283    -17.1596228509    -10.8916192495
|  6>  H     -2.2280613511    -17.9186736527    -11.6951250532
|  7>  H     -0.9802421700    -16.7139793231    -11.1019005493
|  8>  H     -2.5313653560    -16.8641096907    -10.0142017308
|  9> *
| 10>
| 11> %EPRNMR
| 12>         GTENSOR   TRUE
| 13>         NUCLEI    = ALL H {AISO, ADIP, AORB}
| 14>         NUCLEI    = ALL C {AISO, ADIP, AORB}
| 15> END
| 16>
| 17>
| 18>                          ****END OF INPUT****

CARTESIAN COORDINATES (ANGSTROEM)
---------------------------------
  C     -1.989179  -17.159623  -10.891619
  H     -2.228061  -17.918674  -11.695125
  H     -0.980242  -16.713979  -11.101901
  H     -2.531365  -16.864110  -10.014202

 Total Charge           Charge          ....    0
 Multiplicity           Mult            ....    2
 Number of Electrons    NEL             ....    9
 Basis Dimension        Dim             ....   73

ORBITAL ENERGIES
----------------
                 SPIN UP ORBITALS
  NO   OCC          E(Eh)            E(eV)
   0   1.0000     -10.192991      -277.3654
   1   1.0000      -0.680723       -18.5234
   2   1.0000      -0.437211       -11.8971
   3   1.0000      -0.395322       -10.7572
   4   1.0000      -0.235135        -6.3983
   5   0.0000      -0.000186        -0.0051
   6   0.0000       0.034256         0.9322
   7   0.0000       0.038809         1.0560
   8   0.0000       0.047315         1.2875
   9   0.0000       0.079196         2.1550

                 SPIN DOWN ORBITALS
  NO   OCC          E(Eh)            E(eV)
   0   1.0000     -10.178377      -276.9677
   1   1.0000      -0.640964       -17.4415
   2   1.0000      -0.428180       -11.6514
   3   1.0000      -0.385978       -10.5030
   4   0.0000      -0.077257        -2.1023
   5   0.0000       0.003257         0.0886
   6   0.0000       0.033975         0.9245
   7   0.0000       0.038458         1.0465
   8   0.0000       0.060637         1.6500

MULLIKEN ATOMIC CHARGES AND SPIN POPULATIONS
--------------------------------------------
   0 C :   -0.430736    1.109832
   1 H :    0.144112   -0.038824
   2 H :    0.132485   -0.038093
   3 H :    0.154139   -0.032916
Sum of atomic charges         :   -0.0000000

LOEWDIN ATOMIC CHARGES AND SPIN POPULATIONS
-------------------------------------------
   0 C :   -0.175243    0.920281
   1 H :    0.069246    0.022841
   2 H :    0.062541    0.024677
   3 H :    0.043456    0.032201

  Mayer bond orders larger than 0.100000
B(  0-C ,  1-H ) :   0.9734 B(  0-C ,  2-H ) :   0.9757 B(  0-C ,  3-H ) :   0.9724

FINAL SINGLE POINT ENERGY       -39.822912582755

DIPOLE MOMENT
-------------
                                X             Y             Z
Electronic contribution:     -0.15226       0.00934       0.10276
Nuclear contribution   :      0.17078      -0.01341      -0.10221
                        -----------------------------------------
Total Dipole Moment    :      0.01853      -0.00407       0.00056
                        -----------------------------------------
Magnitude (a.u.)       :      0.01898
Magnitude (Debye)      :      0.04824

Rotational constants in cm-1:    10.152635     8.201075     4.537656
Rotational constants in MHz : 304368.327541 245862.044991 136035.497648

                             ****ORCA TERMINATED NORMALLY****
TOTAL RUN TIME: 0 days 0 hours 0 minutes 21 seconds 409 msec
