                         Program Version 5.0.3 -  RELEASE  -
|  1> !B3LYP EPR-III Autoaux
|  2> !PAL4
|  3>
|  4> * xyz 0 2
|  5>  C      1.8486783076    -12.7975206599     -9.9192186031
|  6>  H      1.7043347796    -12.3103112230     -9.0187402713
|  7>  H      0.8963070605    -12.8533943289    -10.4360937610
|  8>  H      2.6511580340    -13.3862691952    -10.2535432165
|  9> *
| 10>
| 11> %EPRNMR
| 12>         GTENSOR   TRUE
| 13>         NUCLEI    = ALL H {AISO, ADIP, AORB}
| 14>         NUCLEI    = ALL C {AISO, ADIP, AORB}
| 15> END
| 16>
| 17>
| 18>                          ****END OF INPUT****

CARTESIAN COORDINATES (ANGSTROEM)
---------------------------------
  C      1.848678  -12.797521   -9.919219
  H      1.704335  -12.310311   -9.018740
  H      0.896307  -12.853394  -10.436094
  H      2.651158  -13.386269  -10.253543

 Total Charge           Charge          ....    0
 Multiplicity           Mult            ....    2
 Number of Electrons    NEL             ....    9
 Basis Dimension        Dim             ....   73

ORBITAL ENERGIES
----------------
                 SPIN UP ORBITALS
  NO   OCC          E(Eh)            E(eV)
   0   1.0000     -10.177248      -276.9370
   1   1.0000      -0.695413       -18.9232
   2   1.0000      -0.448087       -12.1931
   3   1.0000      -0.405796       -11.0423
   4   1.0000      -0.236578        -6.4376
   5   0.0000       0.001536         0.0418
   6   0.0000       0.034833         0.9479
   7   0.0000       0.038891         1.0583
   8   0.0000       0.047554         1.2940
   9   0.0000       0.088973         2.4211

                 SPIN DOWN ORBITALS
  NO   OCC          E(Eh)            E(eV)
   0   1.0000     -10.162900      -276.5466
   1   1.0000      -0.656586       -17.8666
   2   1.0000      -0.438365       -11.9285
   3   1.0000      -0.395808       -10.7705
   4   0.0000      -0.078610        -2.1391
   5   0.0000       0.004400         0.1197
   6   0.0000       0.034466         0.9379
   7   0.0000       0.038442         1.0461
   8   0.0000       0.060670         1.6509

MULLIKEN ATOMIC CHARGES AND SPIN POPULATIONS
--------------------------------------------
   0 C :   -0.427309    1.096689
   1 H :    0.145918   -0.031568
   2 H :    0.130421   -0.034812
   3 H :    0.150970   -0.030309
Sum of atomic charges         :   -0.0000000

LOEWDIN ATOMIC CHARGES AND SPIN POPULATIONS
-------------------------------------------
   0 C :   -0.128591    0.896611
   1 H :    0.031566    0.038137
   2 H :    0.055860    0.030017
   3 H :    0.041165    0.035235

  Mayer bond orders larger than 0.100000
B(  0-C ,  1-H ) :   0.9815 B(  0-C ,  2-H ) :   0.9827 B(  0-C ,  3-H ) :   0.9801

FINAL SINGLE POINT ENERGY       -39.823181362405

DIPOLE MOMENT
-------------
                                X             Y             Z
Electronic contribution:      0.18437       0.06619      -0.00355
Nuclear contribution   :     -0.22052      -0.11798       0.03693
                        -----------------------------------------
Total Dipole Moment    :     -0.03616      -0.05179       0.03338
                        -----------------------------------------
Magnitude (a.u.)       :      0.07144
Magnitude (Debye)      :      0.18158

Rotational constants in cm-1:    11.192564     8.980262     5.028631
Rotational constants in MHz : 335544.634258 269221.484633 150754.560933

                             ****ORCA TERMINATED NORMALLY****
TOTAL RUN TIME: 0 days 0 hours 0 minutes 24 seconds 595 msec
