                         Program Version 5.0.3 -  RELEASE  -
|  1> !B3LYP EPR-III Autoaux
|  2> !PAL4
|  3>
|  4> * xyz 0 2
|  5>  C    -85.6399201492   -113.3228674004    -31.7227331831
|  6>  H    -84.6316891858   -113.8121680435    -31.7211617382
|  7>  H    -85.6411962230   -112.1840557577    -31.6165034587
|  8>  H    -86.5375000278   -113.9079400507    -31.8019941476
|  9> *
| 10>
| 11> %EPRNMR
| 12>         GTENSOR   TRUE
| 13>         NUCLEI    = ALL H {AISO, ADIP, AORB}
| 14>         NUCLEI    = ALL C {AISO, ADIP, AORB}
| 15> END
| 16>
| 17>
| 18>                          ****END OF INPUT****

CARTESIAN COORDINATES (ANGSTROEM)
---------------------------------
  C    -85.639920  -113.322867  -31.722733
  H    -84.631689  -113.812168  -31.721162
  H    -85.641196  -112.184056  -31.616503
  H    -86.537500  -113.907940  -31.801994

 Total Charge           Charge          ....    0
 Multiplicity           Mult            ....    2
 Number of Electrons    NEL             ....    9
 Basis Dimension        Dim             ....   73

ORBITAL ENERGIES
----------------
                 SPIN UP ORBITALS
  NO   OCC          E(Eh)            E(eV)
   0   1.0000     -10.193934      -277.3911
   1   1.0000      -0.679152       -18.4807
   2   1.0000      -0.426076       -11.5941
   3   1.0000      -0.405746       -11.0409
   4   1.0000      -0.234899        -6.3919
   5   0.0000      -0.000256        -0.0070
   6   0.0000       0.035737         0.9725
   7   0.0000       0.037517         1.0209
   8   0.0000       0.047322         1.2877
   9   0.0000       0.083476         2.2715

                 SPIN DOWN ORBITALS
  NO   OCC          E(Eh)            E(eV)
   0   1.0000     -10.179306      -276.9930
   1   1.0000      -0.639284       -17.3958
   2   1.0000      -0.416841       -11.3428
   3   1.0000      -0.396748       -10.7961
   4   0.0000      -0.077022        -2.0959
   5   0.0000       0.003236         0.0881
   6   0.0000       0.035427         0.9640
   7   0.0000       0.037210         1.0125
   8   0.0000       0.060672         1.6510

MULLIKEN ATOMIC CHARGES AND SPIN POPULATIONS
--------------------------------------------
   0 C :   -0.426919    1.109388
   1 H :    0.139114   -0.037217
   2 H :    0.139506   -0.038732
   3 H :    0.148299   -0.033439
Sum of atomic charges         :    0.0000000

LOEWDIN ATOMIC CHARGES AND SPIN POPULATIONS
-------------------------------------------
   0 C :   -0.176885    0.921714
   1 H :    0.062375    0.024862
   2 H :    0.072592    0.021135
   3 H :    0.041918    0.032289

  Mayer bond orders larger than 0.100000
B(  0-C ,  1-H ) :   0.9734 B(  0-C ,  2-H ) :   0.9728 B(  0-C ,  3-H ) :   0.9723

FINAL SINGLE POINT ENERGY       -39.825112720676

DIPOLE MOMENT
-------------
                                X             Y             Z
Electronic contribution:     -0.08001      -0.05271      -0.01659
Nuclear contribution   :      0.08197       0.04830       0.02139
                        -----------------------------------------
Total Dipole Moment    :      0.00196      -0.00442       0.00480
                        -----------------------------------------
Magnitude (a.u.)       :      0.00681
Magnitude (Debye)      :      0.01731

Rotational constants in cm-1:     9.246536     8.762077     4.499118
Rotational constants in MHz : 277204.160636 262680.466382 134880.176747

                             ****ORCA TERMINATED NORMALLY****
TOTAL RUN TIME: 0 days 0 hours 0 minutes 24 seconds 156 msec
