                         Program Version 5.0.3 -  RELEASE  -
|  1> !B3LYP EPR-III Autoaux
|  2> !PAL4
|  3>
|  4> * xyz 0 2
|  5>  C    -26.9443144743    -45.3860577392    -17.3593528047
|  6>  H    -27.6719435876    -46.2186645166    -17.3041326865
|  7>  H    -25.9538193874    -45.3678980883    -17.5701391157
|  8>  H    -27.3620667610    -44.4561018673    -17.0426616200
|  9> *
| 10>
| 11> %EPRNMR
| 12>         GTENSOR   TRUE
| 13>         NUCLEI    = ALL H {AISO, ADIP, AORB}
| 14>         NUCLEI    = ALL C {AISO, ADIP, AORB}
| 15> END
| 16>
| 17>
| 18>                          ****END OF INPUT****

CARTESIAN COORDINATES (ANGSTROEM)
---------------------------------
  C    -26.944314  -45.386058  -17.359353
  H    -27.671944  -46.218665  -17.304133
  H    -25.953819  -45.367898  -17.570139
  H    -27.362067  -44.456102  -17.042662

 Total Charge           Charge          ....    0
 Multiplicity           Mult            ....    2
 Number of Electrons    NEL             ....    9
 Basis Dimension        Dim             ....   73

ORBITAL ENERGIES
----------------
                 SPIN UP ORBITALS
  NO   OCC          E(Eh)            E(eV)
   0   1.0000     -10.178782      -276.9787
   1   1.0000      -0.693929       -18.8828
   2   1.0000      -0.445009       -12.1093
   3   1.0000      -0.407146       -11.0790
   4   1.0000      -0.235142        -6.3985
   5   0.0000       0.001362         0.0371
   6   0.0000       0.034724         0.9449
   7   0.0000       0.038679         1.0525
   8   0.0000       0.047552         1.2939
   9   0.0000       0.084572         2.3013

                 SPIN DOWN ORBITALS
  NO   OCC          E(Eh)            E(eV)
   0   1.0000     -10.164432      -276.5883
   1   1.0000      -0.654783       -17.8175
   2   1.0000      -0.435416       -11.8483
   3   1.0000      -0.397307       -10.8113
   4   0.0000      -0.077768        -2.1162
   5   0.0000       0.004346         0.1183
   6   0.0000       0.034372         0.9353
   7   0.0000       0.038236         1.0405
   8   0.0000       0.060736         1.6527

MULLIKEN ATOMIC CHARGES AND SPIN POPULATIONS
--------------------------------------------
   0 C :   -0.430605    1.100558
   1 H :    0.144919   -0.036457
   2 H :    0.152761   -0.029755
   3 H :    0.132925   -0.034346
Sum of atomic charges         :    0.0000000

LOEWDIN ATOMIC CHARGES AND SPIN POPULATIONS
-------------------------------------------
   0 C :   -0.132630    0.899186
   1 H :    0.067690    0.025846
   2 H :    0.018884    0.041944
   3 H :    0.046056    0.033024

  Mayer bond orders larger than 0.100000
B(  0-C ,  1-H ) :   0.9792 B(  0-C ,  2-H ) :   0.9803 B(  0-C ,  3-H ) :   0.9815

FINAL SINGLE POINT ENERGY       -39.822163917526

DIPOLE MOMENT
-------------
                                X             Y             Z
Electronic contribution:      0.11467      -0.07226      -0.08862
Nuclear contribution   :     -0.11608       0.08657       0.12076
                        -----------------------------------------
Total Dipole Moment    :     -0.00141       0.01431       0.03214
                        -----------------------------------------
Magnitude (a.u.)       :      0.03521
Magnitude (Debye)      :      0.08949

Rotational constants in cm-1:    11.113229     8.874419     4.941241
Rotational constants in MHz : 333166.218955 266048.377697 148134.676245

                             ****ORCA TERMINATED NORMALLY****
TOTAL RUN TIME: 0 days 0 hours 0 minutes 27 seconds 636 msec
