                         Program Version 5.0.3 -  RELEASE  -
|  1> !B3LYP EPR-III Autoaux
|  2> !PAL4
|  3>
|  4> * xyz 0 2
|  5>  C     -1.0682684882    -16.1242414213    -10.6599469037
|  6>  H     -1.7629154443    -15.6966470579    -11.3772672714
|  7>  H     -1.2437658984    -17.0751523383    -10.1685587964
|  8>  H     -0.1378200070    -15.6131437836    -10.5748186533
|  9> *
| 10>
| 11> %EPRNMR
| 12>         GTENSOR   TRUE
| 13>         NUCLEI    = ALL H {AISO, ADIP, AORB}
| 14>         NUCLEI    = ALL C {AISO, ADIP, AORB}
| 15> END
| 16>
| 17>
| 18>                          ****END OF INPUT****

CARTESIAN COORDINATES (ANGSTROEM)
---------------------------------
  C     -1.068268  -16.124241  -10.659947
  H     -1.762915  -15.696647  -11.377267
  H     -1.243766  -17.075152  -10.168559
  H     -0.137820  -15.613144  -10.574819

 Total Charge           Charge          ....    0
 Multiplicity           Mult            ....    2
 Number of Electrons    NEL             ....    9
 Basis Dimension        Dim             ....   73

ORBITAL ENERGIES
----------------
                 SPIN UP ORBITALS
  NO   OCC          E(Eh)            E(eV)
   0   1.0000     -10.184031      -277.1216
   1   1.0000      -0.688192       -18.7267
   2   1.0000      -0.429214       -11.6795
   3   1.0000      -0.416832       -11.3426
   4   1.0000      -0.235242        -6.4013
   5   0.0000       0.000988         0.0269
   6   0.0000       0.036036         0.9806
   7   0.0000       0.037525         1.0211
   8   0.0000       0.047394         1.2897
   9   0.0000       0.089732         2.4417

                 SPIN DOWN ORBITALS
  NO   OCC          E(Eh)            E(eV)
   0   1.0000     -10.169641      -276.7300
   1   1.0000      -0.648922       -17.6581
   2   1.0000      -0.419851       -11.4247
   3   1.0000      -0.407219       -11.0810
   4   0.0000      -0.077718        -2.1148
   5   0.0000       0.004082         0.1111
   6   0.0000       0.035645         0.9700
   7   0.0000       0.037092         1.0093
   8   0.0000       0.060625         1.6497

MULLIKEN ATOMIC CHARGES AND SPIN POPULATIONS
--------------------------------------------
   0 C :   -0.426965    1.101201
   1 H :    0.140192   -0.034430
   2 H :    0.145490   -0.033581
   3 H :    0.141282   -0.033190
Sum of atomic charges         :    0.0000000

LOEWDIN ATOMIC CHARGES AND SPIN POPULATIONS
-------------------------------------------
   0 C :   -0.148732    0.906455
   1 H :    0.053050    0.029978
   2 H :    0.053319    0.030038
   3 H :    0.042363    0.033530

  Mayer bond orders larger than 0.100000
B(  0-C ,  1-H ) :   0.9780 B(  0-C ,  2-H ) :   0.9769 B(  0-C ,  3-H ) :   0.9781

FINAL SINGLE POINT ENERGY       -39.828125480836

DIPOLE MOMENT
-------------
                                X             Y             Z
Electronic contribution:     -0.02532      -0.00435       0.07416
Nuclear contribution   :      0.04520      -0.00916      -0.10553
                        -----------------------------------------
Total Dipole Moment    :      0.01987      -0.01351      -0.03137
                        -----------------------------------------
Magnitude (a.u.)       :      0.03951
Magnitude (Debye)      :      0.10044

Rotational constants in cm-1:    10.158940     9.050569     4.800160
Rotational constants in MHz : 304557.363804 271329.246430 143905.171026

                             ****ORCA TERMINATED NORMALLY****
TOTAL RUN TIME: 0 days 0 hours 0 minutes 21 seconds 210 msec
