                         Program Version 5.0.3 -  RELEASE  -
|  1> !B3LYP EPR-III Autoaux
|  2> !PAL4
|  3>
|  4> * xyz 0 2
|  5>  C    -46.0229115977    -66.7788738258    -22.1630811746
|  6>  H    -47.1250131941    -66.8028216399    -22.1920845114
|  7>  H    -45.6877839321    -67.6973627000    -22.3568476578
|  8>  H    -45.4596090310    -65.8163032355    -22.0382333391
|  9> *
| 10>
| 11> %EPRNMR
| 12>         GTENSOR   TRUE
| 13>         NUCLEI    = ALL H {AISO, ADIP, AORB}
| 14>         NUCLEI    = ALL C {AISO, ADIP, AORB}
| 15> END
| 16>
| 17>
| 18>                          ****END OF INPUT****

CARTESIAN COORDINATES (ANGSTROEM)
---------------------------------
  C    -46.022912  -66.778874  -22.163081
  H    -47.125013  -66.802822  -22.192085
  H    -45.687784  -67.697363  -22.356848
  H    -45.459609  -65.816303  -22.038233

 Total Charge           Charge          ....    0
 Multiplicity           Mult            ....    2
 Number of Electrons    NEL             ....    9
 Basis Dimension        Dim             ....   73

ORBITAL ENERGIES
----------------
                 SPIN UP ORBITALS
  NO   OCC          E(Eh)            E(eV)
   0   1.0000     -10.182023      -277.0669
   1   1.0000      -0.692404       -18.8413
   2   1.0000      -0.440715       -11.9925
   3   1.0000      -0.405284       -11.0283
   4   1.0000      -0.235241        -6.4012
   5   0.0000       0.000850         0.0231
   6   0.0000       0.034748         0.9455
   7   0.0000       0.038541         1.0488
   8   0.0000       0.047482         1.2920
   9   0.0000       0.083698         2.2776

                 SPIN DOWN ORBITALS
  NO   OCC          E(Eh)            E(eV)
   0   1.0000     -10.167597      -276.6744
   1   1.0000      -0.653296       -17.7771
   2   1.0000      -0.431075       -11.7302
   3   1.0000      -0.395531       -10.7629
   4   0.0000      -0.077661        -2.1133
   5   0.0000       0.003960         0.1078
   6   0.0000       0.034467         0.9379
   7   0.0000       0.038110         1.0370
   8   0.0000       0.060694         1.6516

MULLIKEN ATOMIC CHARGES AND SPIN POPULATIONS
--------------------------------------------
   0 C :   -0.431851    1.103348
   1 H :    0.131116   -0.036775
   2 H :    0.150721   -0.030464
   3 H :    0.150014   -0.036109
Sum of atomic charges         :   -0.0000000

LOEWDIN ATOMIC CHARGES AND SPIN POPULATIONS
-------------------------------------------
   0 C :   -0.140790    0.903856
   1 H :    0.061431    0.027372
   2 H :    0.005852    0.045339
   3 H :    0.073506    0.023433

  Mayer bond orders larger than 0.100000
B(  0-C ,  1-H ) :   0.9810 B(  0-C ,  2-H ) :   0.9788 B(  0-C ,  3-H ) :   0.9757

FINAL SINGLE POINT ENERGY       -39.818405468715

DIPOLE MOMENT
-------------
                                X             Y             Z
Electronic contribution:      0.14616      -0.02415       0.04227
Nuclear contribution   :     -0.15265       0.01509      -0.07339
                        -----------------------------------------
Total Dipole Moment    :     -0.00649      -0.00906      -0.03112
                        -----------------------------------------
Magnitude (a.u.)       :      0.03306
Magnitude (Debye)      :      0.08403

Rotational constants in cm-1:    11.487861     8.310176     4.829608
Rotational constants in MHz : 344397.422531 249132.806886 144788.004330

                             ****ORCA TERMINATED NORMALLY****
TOTAL RUN TIME: 0 days 0 hours 0 minutes 20 seconds 568 msec
