                         Program Version 5.0.3 -  RELEASE  -
|  1> !B3LYP EPR-III Autoaux
|  2> !PAL4
|  3>
|  4> * xyz 0 2
|  5>  C      7.4861093084     -6.3947332387     -8.4424373138
|  6>  H      7.2213170967     -6.0805289263     -7.4121920991
|  7>  H      6.7929056248     -6.8750267482     -9.2415611965
|  8>  H      8.4592869158     -5.9371181842     -8.7353068483
|  9> *
| 10>
| 11> %EPRNMR
| 12>         GTENSOR   TRUE
| 13>         NUCLEI    = ALL H {AISO, ADIP, AORB}
| 14>         NUCLEI    = ALL C {AISO, ADIP, AORB}
| 15> END
| 16>
| 17>
| 18>                          ****END OF INPUT****

CARTESIAN COORDINATES (ANGSTROEM)
---------------------------------
  C      7.486109   -6.394733   -8.442437
  H      7.221317   -6.080529   -7.412192
  H      6.792906   -6.875027   -9.241561
  H      8.459287   -5.937118   -8.735307

 Total Charge           Charge          ....    0
 Multiplicity           Mult            ....    2
 Number of Electrons    NEL             ....    9
 Basis Dimension        Dim             ....   73

ORBITAL ENERGIES
----------------
                 SPIN UP ORBITALS
  NO   OCC          E(Eh)            E(eV)
   0   1.0000     -10.198673      -277.5200
   1   1.0000      -0.676079       -18.3970
   2   1.0000      -0.422262       -11.4903
   3   1.0000      -0.400359       -10.8943
   4   1.0000      -0.236783        -6.4432
   5   0.0000      -0.001288        -0.0350
   6   0.0000       0.034970         0.9516
   7   0.0000       0.038304         1.0423
   8   0.0000       0.047166         1.2834
   9   0.0000       0.076420         2.0795

                 SPIN DOWN ORBITALS
  NO   OCC          E(Eh)            E(eV)
   0   1.0000     -10.183909      -277.1182
   1   1.0000      -0.636503       -17.3201
   2   1.0000      -0.413455       -11.2507
   3   1.0000      -0.390813       -10.6346
   4   0.0000      -0.077953        -2.1212
   5   0.0000       0.002361         0.0643
   6   0.0000       0.034804         0.9471
   7   0.0000       0.037977         1.0334
   8   0.0000       0.060455         1.6451

MULLIKEN ATOMIC CHARGES AND SPIN POPULATIONS
--------------------------------------------
   0 C :   -0.427175    1.108760
   1 H :    0.143008   -0.035461
   2 H :    0.148662   -0.037195
   3 H :    0.135505   -0.036104
Sum of atomic charges         :    0.0000000

LOEWDIN ATOMIC CHARGES AND SPIN POPULATIONS
-------------------------------------------
   0 C :   -0.192271    0.927939
   1 H :    0.055756    0.027007
   2 H :    0.080257    0.018733
   3 H :    0.056259    0.026321

  Mayer bond orders larger than 0.100000
B(  0-C ,  1-H ) :   0.9714 B(  0-C ,  2-H ) :   0.9678 B(  0-C ,  3-H ) :   0.9727

FINAL SINGLE POINT ENERGY       -39.820802064883

DIPOLE MOMENT
-------------
                                X             Y             Z
Electronic contribution:     -0.02659      -0.14893       0.03025
Nuclear contribution   :      0.01138       0.21849      -0.04628
                        -----------------------------------------
Total Dipole Moment    :     -0.01521       0.06956      -0.01603
                        -----------------------------------------
Magnitude (a.u.)       :      0.07298
Magnitude (Debye)      :      0.18551

Rotational constants in cm-1:    10.058469     7.698578     4.403681
Rotational constants in MHz : 301545.315774 230797.555099 132019.040660

                             ****ORCA TERMINATED NORMALLY****
TOTAL RUN TIME: 0 days 0 hours 0 minutes 31 seconds 630 msec
