                         Program Version 5.0.3 -  RELEASE  -
|  1> !B3LYP EPR-III Autoaux
|  2> !PAL4
|  3>
|  4> * xyz 0 2
|  5>  C    -83.1915930060   -110.3222062208    -31.1569376217
|  6>  H    -84.0699330557   -110.9387069731    -31.2322434827
|  7>  H    -82.2839246881   -110.8310456697    -31.1558122058
|  8>  H    -83.3777680324   -109.2139735311    -31.0670854580
|  9> *
| 10>
| 11> %EPRNMR
| 12>         GTENSOR   TRUE
| 13>         NUCLEI    = ALL H {AISO, ADIP, AORB}
| 14>         NUCLEI    = ALL C {AISO, ADIP, AORB}
| 15> END
| 16>
| 17>
| 18>                          ****END OF INPUT****

CARTESIAN COORDINATES (ANGSTROEM)
---------------------------------
  C    -83.191593  -110.322206  -31.156938
  H    -84.069933  -110.938707  -31.232243
  H    -82.283925  -110.831046  -31.155812
  H    -83.377768  -109.213974  -31.067085

 Total Charge           Charge          ....    0
 Multiplicity           Mult            ....    2
 Number of Electrons    NEL             ....    9
 Basis Dimension        Dim             ....   73

ORBITAL ENERGIES
----------------
                 SPIN UP ORBITALS
  NO   OCC          E(Eh)            E(eV)
   0   1.0000     -10.184639      -277.1381
   1   1.0000      -0.688400       -18.7323
   2   1.0000      -0.434670       -11.8280
   3   1.0000      -0.410037       -11.1577
   4   1.0000      -0.234860        -6.3909
   5   0.0000       0.000772         0.0210
   6   0.0000       0.035256         0.9594
   7   0.0000       0.038048         1.0353
   8   0.0000       0.047373         1.2891
   9   0.0000       0.083327         2.2674

                 SPIN DOWN ORBITALS
  NO   OCC          E(Eh)            E(eV)
   0   1.0000     -10.170237      -276.7462
   1   1.0000      -0.649058       -17.6618
   2   1.0000      -0.425290       -11.5727
   3   1.0000      -0.400476       -10.8975
   4   0.0000      -0.077484        -2.1085
   5   0.0000       0.003934         0.1070
   6   0.0000       0.034901         0.9497
   7   0.0000       0.037615         1.0236
   8   0.0000       0.060624         1.6497

MULLIKEN ATOMIC CHARGES AND SPIN POPULATIONS
--------------------------------------------
   0 C :   -0.429759    1.103429
   1 H :    0.136156   -0.034526
   2 H :    0.149462   -0.031619
   3 H :    0.144141   -0.037283
Sum of atomic charges         :   -0.0000000

LOEWDIN ATOMIC CHARGES AND SPIN POPULATIONS
-------------------------------------------
   0 C :   -0.149734    0.907461
   1 H :    0.046615    0.031942
   2 H :    0.030401    0.037514
   3 H :    0.072719    0.023083

  Mayer bond orders larger than 0.100000
B(  0-C ,  1-H ) :   0.9786 B(  0-C ,  2-H ) :   0.9774 B(  0-C ,  3-H ) :   0.9761

FINAL SINGLE POINT ENERGY       -39.824892823082

DIPOLE MOMENT
-------------
                                X             Y             Z
Electronic contribution:      0.10711       0.00010      -0.00668
Nuclear contribution   :     -0.11755      -0.01282       0.01175
                        -----------------------------------------
Total Dipole Moment    :     -0.01044      -0.01272       0.00506
                        -----------------------------------------
Magnitude (a.u.)       :      0.01722
Magnitude (Debye)      :      0.04376

Rotational constants in cm-1:    10.581783     8.669990     4.765859
Rotational constants in MHz : 317233.880267 259919.750882 142876.849383

                             ****ORCA TERMINATED NORMALLY****
TOTAL RUN TIME: 0 days 0 hours 0 minutes 23 seconds 769 msec
