                         Program Version 5.0.3 -  RELEASE  -
|  1> !B3LYP EPR-III Autoaux
|  2> !PAL4
|  3>
|  4> * xyz 0 2
|  5>  C    -71.7315779420    -96.3183607983    -28.4000945296
|  6>  H    -70.6931569709    -96.0295601983    -28.3549487882
|  7>  H    -72.4720075358    -95.4219715024    -28.3262434029
|  8>  H    -72.0841462418    -97.3462418049    -28.4879210852
|  9> *
| 10>
| 11> %EPRNMR
| 12>         GTENSOR   TRUE
| 13>         NUCLEI    = ALL H {AISO, ADIP, AORB}
| 14>         NUCLEI    = ALL C {AISO, ADIP, AORB}
| 15> END
| 16>
| 17>
| 18>                          ****END OF INPUT****

CARTESIAN COORDINATES (ANGSTROEM)
---------------------------------
  C    -71.731578  -96.318361  -28.400095
  H    -70.693157  -96.029560  -28.354949
  H    -72.472008  -95.421972  -28.326243
  H    -72.084146  -97.346242  -28.487921

 Total Charge           Charge          ....    0
 Multiplicity           Mult            ....    2
 Number of Electrons    NEL             ....    9
 Basis Dimension        Dim             ....   73

ORBITAL ENERGIES
----------------
                 SPIN UP ORBITALS
  NO   OCC          E(Eh)            E(eV)
   0   1.0000     -10.193447      -277.3778
   1   1.0000      -0.679997       -18.5037
   2   1.0000      -0.430193       -11.7062
   3   1.0000      -0.402260       -10.9461
   4   1.0000      -0.234997        -6.3946
   5   0.0000      -0.000275        -0.0075
   6   0.0000       0.035401         0.9633
   7   0.0000       0.037794         1.0284
   8   0.0000       0.047317         1.2876
   9   0.0000       0.081756         2.2247

                 SPIN DOWN ORBITALS
  NO   OCC          E(Eh)            E(eV)
   0   1.0000     -10.178823      -276.9799
   1   1.0000      -0.640156       -17.4195
   2   1.0000      -0.420923       -11.4539
   3   1.0000      -0.393244       -10.7007
   4   0.0000      -0.077102        -2.0981
   5   0.0000       0.003208         0.0873
   6   0.0000       0.035088         0.9548
   7   0.0000       0.037501         1.0204
   8   0.0000       0.060657         1.6506

MULLIKEN ATOMIC CHARGES AND SPIN POPULATIONS
--------------------------------------------
   0 C :   -0.427296    1.109322
   1 H :    0.144421   -0.034572
   2 H :    0.133957   -0.040416
   3 H :    0.148918   -0.034335
Sum of atomic charges         :   -0.0000000

LOEWDIN ATOMIC CHARGES AND SPIN POPULATIONS
-------------------------------------------
   0 C :   -0.174539    0.920897
   1 H :    0.043658    0.031592
   2 H :    0.080196    0.018008
   3 H :    0.050685    0.029502

  Mayer bond orders larger than 0.100000
B(  0-C ,  1-H ) :   0.9733 B(  0-C ,  2-H ) :   0.9741 B(  0-C ,  3-H ) :   0.9722

FINAL SINGLE POINT ENERGY       -39.824005181596

DIPOLE MOMENT
-------------
                                X             Y             Z
Electronic contribution:      0.05140      -0.11859      -0.01823
Nuclear contribution   :     -0.04090       0.11790       0.02336
                        -----------------------------------------
Total Dipole Moment    :      0.01049      -0.00069       0.00513
                        -----------------------------------------
Magnitude (a.u.)       :      0.01170
Magnitude (Debye)      :      0.02974

Rotational constants in cm-1:     9.550763     8.547240     4.510803
Rotational constants in MHz : 286324.683462 256239.801050 135230.477140

                             ****ORCA TERMINATED NORMALLY****
TOTAL RUN TIME: 0 days 0 hours 0 minutes 36 seconds 514 msec
