                         Program Version 5.0.3 -  RELEASE  -
|  1> !B3LYP EPR-III Autoaux
|  2> !PAL4
|  3>
|  4> * xyz 0 2
|  5>  C    -65.1469088017    -88.3653845539    -26.8907977296
|  6>  H    -64.4628839510    -87.5350211306    -26.8243273516
|  7>  H    -66.1496939041    -88.0765895284    -26.8686463200
|  8>  H    -64.8472838733    -89.3823316094    -26.9512280952
|  9> *
| 10>
| 11> %EPRNMR
| 12>         GTENSOR   TRUE
| 13>         NUCLEI    = ALL H {AISO, ADIP, AORB}
| 14>         NUCLEI    = ALL C {AISO, ADIP, AORB}
| 15> END
| 16>
| 17>
| 18>                          ****END OF INPUT****

CARTESIAN COORDINATES (ANGSTROEM)
---------------------------------
  C    -65.146909  -88.365385  -26.890798
  H    -64.462884  -87.535021  -26.824327
  H    -66.149694  -88.076590  -26.868646
  H    -64.847284  -89.382332  -26.951228

 Total Charge           Charge          ....    0
 Multiplicity           Mult            ....    2
 Number of Electrons    NEL             ....    9
 Basis Dimension        Dim             ....   73

ORBITAL ENERGIES
----------------
                 SPIN UP ORBITALS
  NO   OCC          E(Eh)            E(eV)
   0   1.0000     -10.178288      -276.9653
   1   1.0000      -0.692957       -18.8563
   2   1.0000      -0.436664       -11.8822
   3   1.0000      -0.417006       -11.3473
   4   1.0000      -0.234622        -6.3844
   5   0.0000       0.001561         0.0425
   6   0.0000       0.035744         0.9726
   7   0.0000       0.037866         1.0304
   8   0.0000       0.047592         1.2950
   9   0.0000       0.090927         2.4742

                 SPIN DOWN ORBITALS
  NO   OCC          E(Eh)            E(eV)
   0   1.0000     -10.163969      -276.5757
   1   1.0000      -0.653734       -17.7890
   2   1.0000      -0.427125       -11.6227
   3   1.0000      -0.407199       -11.0804
   4   0.0000      -0.077474        -2.1082
   5   0.0000       0.004531         0.1233
   6   0.0000       0.035348         0.9619
   7   0.0000       0.037419         1.0182
   8   0.0000       0.060802         1.6545

MULLIKEN ATOMIC CHARGES AND SPIN POPULATIONS
--------------------------------------------
   0 C :   -0.428071    1.099771
   1 H :    0.139364   -0.034656
   2 H :    0.141367   -0.032639
   3 H :    0.147340   -0.032476
Sum of atomic charges         :    0.0000000

LOEWDIN ATOMIC CHARGES AND SPIN POPULATIONS
-------------------------------------------
   0 C :   -0.132691    0.898870
   1 H :    0.052424    0.030973
   2 H :    0.034691    0.036799
   3 H :    0.045576    0.033358

  Mayer bond orders larger than 0.100000
B(  0-C ,  1-H ) :   0.9806 B(  0-C ,  2-H ) :   0.9805 B(  0-C ,  3-H ) :   0.9793

FINAL SINGLE POINT ENERGY       -39.826873917769

DIPOLE MOMENT
-------------
                                X             Y             Z
Electronic contribution:      0.00584      -0.06935      -0.01449
Nuclear contribution   :     -0.01434       0.07661       0.02113
                        -----------------------------------------
Total Dipole Moment    :     -0.00850       0.00726       0.00664
                        -----------------------------------------
Magnitude (a.u.)       :      0.01300
Magnitude (Debye)      :      0.03304

Rotational constants in cm-1:    10.715221     9.201688     4.950827
Rotational constants in MHz : 321234.253838 275859.655008 148422.048074

                             ****ORCA TERMINATED NORMALLY****
TOTAL RUN TIME: 0 days 0 hours 0 minutes 18 seconds 775 msec
