                         Program Version 5.0.3 -  RELEASE  -
|  1> !B3LYP EPR-III Autoaux
|  2> !PAL4
|  3>
|  4> * xyz 0 2
|  5>  C    -26.4184844911    -44.7745420482    -17.2203379484
|  6>  H    -27.4223783488    -45.0871195145    -17.2563929111
|  7>  H    -25.4412776114    -45.3682125557    -17.4217529732
|  8>  H    -26.2851443357    -43.7521462956    -16.8404154006
|  9> *
| 10>
| 11> %EPRNMR
| 12>         GTENSOR   TRUE
| 13>         NUCLEI    = ALL H {AISO, ADIP, AORB}
| 14>         NUCLEI    = ALL C {AISO, ADIP, AORB}
| 15> END
| 16>
| 17>
| 18>                          ****END OF INPUT****

CARTESIAN COORDINATES (ANGSTROEM)
---------------------------------
  C    -26.418484  -44.774542  -17.220338
  H    -27.422378  -45.087120  -17.256393
  H    -25.441278  -45.368213  -17.421753
  H    -26.285144  -43.752146  -16.840415

 Total Charge           Charge          ....    0
 Multiplicity           Mult            ....    2
 Number of Electrons    NEL             ....    9
 Basis Dimension        Dim             ....   73

ORBITAL ENERGIES
----------------
                 SPIN UP ORBITALS
  NO   OCC          E(Eh)            E(eV)
   0   1.0000     -10.191132      -277.3148
   1   1.0000      -0.682890       -18.5824
   2   1.0000      -0.430845       -11.7239
   3   1.0000      -0.403275       -10.9737
   4   1.0000      -0.235210        -6.4004
   5   0.0000      -0.000158        -0.0043
   6   0.0000       0.034870         0.9488
   7   0.0000       0.038253         1.0409
   8   0.0000       0.047345         1.2883
   9   0.0000       0.077710         2.1146

                 SPIN DOWN ORBITALS
  NO   OCC          E(Eh)            E(eV)
   0   1.0000     -10.176542      -276.9178
   1   1.0000      -0.643319       -17.5056
   2   1.0000      -0.421648       -11.4736
   3   1.0000      -0.393849       -10.7172
   4   0.0000      -0.077300        -2.1034
   5   0.0000       0.003260         0.0887
   6   0.0000       0.034629         0.9423
   7   0.0000       0.037893         1.0311
   8   0.0000       0.060649         1.6503

MULLIKEN ATOMIC CHARGES AND SPIN POPULATIONS
--------------------------------------------
   0 C :   -0.429533    1.108187
   1 H :    0.150127   -0.032446
   2 H :    0.145434   -0.039637
   3 H :    0.133971   -0.036104
Sum of atomic charges         :    0.0000000

LOEWDIN ATOMIC CHARGES AND SPIN POPULATIONS
-------------------------------------------
   0 C :   -0.168922    0.917558
   1 H :    0.032552    0.035905
   2 H :    0.083210    0.018051
   3 H :    0.053160    0.028487

  Mayer bond orders larger than 0.100000
B(  0-C ,  1-H ) :   0.9744 B(  0-C ,  2-H ) :   0.9721 B(  0-C ,  3-H ) :   0.9763

FINAL SINGLE POINT ENERGY       -39.822042571230

DIPOLE MOMENT
-------------
                                X             Y             Z
Electronic contribution:     -0.08302      -0.07933      -0.07440
Nuclear contribution   :      0.07993       0.08705       0.10677
                        -----------------------------------------
Total Dipole Moment    :     -0.00309       0.00772       0.03237
                        -----------------------------------------
Magnitude (a.u.)       :      0.03342
Magnitude (Debye)      :      0.08494

Rotational constants in cm-1:    10.392402     8.147687     4.573793
Rotational constants in MHz : 311556.388665 244261.502143 137118.869376

                             ****ORCA TERMINATED NORMALLY****
TOTAL RUN TIME: 0 days 0 hours 0 minutes 25 seconds 975 msec
