                         Program Version 5.0.3 -  RELEASE  -
|  1> !B3LYP EPR-III Autoaux
|  2> !PAL4
|  3>
|  4> * xyz 0 2
|  5>  C    -42.5095188551    -62.8498347331    -21.2911908025
|  6>  H    -41.4547692484    -62.9441073453    -21.2910513163
|  7>  H    -43.0729155601    -61.9086989238    -21.1033242785
|  8>  H    -43.1757177780    -63.6622439465    -21.4371300885
|  9> *
| 10>
| 11> %EPRNMR
| 12>         GTENSOR   TRUE
| 13>         NUCLEI    = ALL H {AISO, ADIP, AORB}
| 14>         NUCLEI    = ALL C {AISO, ADIP, AORB}
| 15> END
| 16>
| 17>
| 18>                          ****END OF INPUT****

CARTESIAN COORDINATES (ANGSTROEM)
---------------------------------
  C    -42.509519  -62.849835  -21.291191
  H    -41.454769  -62.944107  -21.291051
  H    -43.072916  -61.908699  -21.103324
  H    -43.175718  -63.662244  -21.437130

 Total Charge           Charge          ....    0
 Multiplicity           Mult            ....    2
 Number of Electrons    NEL             ....    9
 Basis Dimension        Dim             ....   73

ORBITAL ENERGIES
----------------
                 SPIN UP ORBITALS
  NO   OCC          E(Eh)            E(eV)
   0   1.0000     -10.183413      -277.1048
   1   1.0000      -0.688828       -18.7440
   2   1.0000      -0.439199       -11.9512
   3   1.0000      -0.407183       -11.0800
   4   1.0000      -0.234836        -6.3902
   5   0.0000       0.001029         0.0280
   6   0.0000       0.035105         0.9552
   7   0.0000       0.038323         1.0428
   8   0.0000       0.047495         1.2924
   9   0.0000       0.086557         2.3553

                 SPIN DOWN ORBITALS
  NO   OCC          E(Eh)            E(eV)
   0   1.0000     -10.168994      -276.7124
   1   1.0000      -0.649431       -17.6719
   2   1.0000      -0.429771       -11.6947
   3   1.0000      -0.397598       -10.8192
   4   0.0000      -0.077428        -2.1069
   5   0.0000       0.004140         0.1127
   6   0.0000       0.034747         0.9455
   7   0.0000       0.037910         1.0316
   8   0.0000       0.060740         1.6528

MULLIKEN ATOMIC CHARGES AND SPIN POPULATIONS
--------------------------------------------
   0 C :   -0.428650    1.103153
   1 H :    0.150721   -0.031954
   2 H :    0.137189   -0.037247
   3 H :    0.140740   -0.033952
Sum of atomic charges         :   -0.0000000

LOEWDIN ATOMIC CHARGES AND SPIN POPULATIONS
-------------------------------------------
   0 C :   -0.147037    0.906177
   1 H :    0.041360    0.034089
   2 H :    0.065398    0.025563
   3 H :    0.040279    0.034172

  Mayer bond orders larger than 0.100000
B(  0-C ,  1-H ) :   0.9771 B(  0-C ,  2-H ) :   0.9787 B(  0-C ,  3-H ) :   0.9786

FINAL SINGLE POINT ENERGY       -39.825939913733

DIPOLE MOMENT
-------------
                                X             Y             Z
Electronic contribution:      0.11954      -0.03557      -0.02303
Nuclear contribution   :     -0.13104       0.02582       0.03153
                        -----------------------------------------
Total Dipole Moment    :     -0.01150      -0.00975       0.00849
                        -----------------------------------------
Magnitude (a.u.)       :      0.01731
Magnitude (Debye)      :      0.04399

Rotational constants in cm-1:    10.557272     8.806925     4.802435
Rotational constants in MHz : 316499.038255 264024.956843 143973.374685

                             ****ORCA TERMINATED NORMALLY****
TOTAL RUN TIME: 0 days 0 hours 0 minutes 19 seconds 815 msec
