                         Program Version 5.0.3 -  RELEASE  -
|  1> !B3LYP EPR-III Autoaux
|  2> !PAL4
|  3>
|  4> * xyz 0 2
|  5>  C    -25.2998346046    -43.5038294814    -16.9139565766
|  6>  H    -25.9846265409    -42.6438650782    -17.1556577171
|  7>  H    -25.3920785051    -44.5429876655    -16.8983232678
|  8>  H    -24.2754377321    -43.1648760247    -16.8204485229
|  9> *
| 10>
| 11> %EPRNMR
| 12>         GTENSOR   TRUE
| 13>         NUCLEI    = ALL H {AISO, ADIP, AORB}
| 14>         NUCLEI    = ALL C {AISO, ADIP, AORB}
| 15> END
| 16>
| 17>
| 18>                          ****END OF INPUT****

CARTESIAN COORDINATES (ANGSTROEM)
---------------------------------
  C    -25.299835  -43.503829  -16.913957
  H    -25.984627  -42.643865  -17.155658
  H    -25.392079  -44.542988  -16.898323
  H    -24.275438  -43.164876  -16.820449

 Total Charge           Charge          ....    0
 Multiplicity           Mult            ....    2
 Number of Electrons    NEL             ....    9
 Basis Dimension        Dim             ....   73

ORBITAL ENERGIES
----------------
                 SPIN UP ORBITALS
  NO   OCC          E(Eh)            E(eV)
   0   1.0000     -10.185484      -277.1611
   1   1.0000      -0.688405       -18.7324
   2   1.0000      -0.442177       -12.0323
   3   1.0000      -0.399225       -10.8635
   4   1.0000      -0.235689        -6.4134
   5   0.0000       0.000572         0.0156
   6   0.0000       0.034093         0.9277
   7   0.0000       0.039106         1.0641
   8   0.0000       0.047420         1.2904
   9   0.0000       0.078553         2.1375

                 SPIN DOWN ORBITALS
  NO   OCC          E(Eh)            E(eV)
   0   1.0000     -10.170998      -276.7669
   1   1.0000      -0.649192       -17.6654
   2   1.0000      -0.432942       -11.7809
   3   1.0000      -0.389331       -10.5942
   4   0.0000      -0.077845        -2.1183
   5   0.0000       0.003738         0.1017
   6   0.0000       0.033803         0.9198
   7   0.0000       0.038694         1.0529
   8   0.0000       0.060639         1.6501

MULLIKEN ATOMIC CHARGES AND SPIN POPULATIONS
--------------------------------------------
   0 C :   -0.431665    1.104498
   1 H :    0.148422   -0.037621
   2 H :    0.153435   -0.031556
   3 H :    0.129808   -0.035321
Sum of atomic charges         :    0.0000000

LOEWDIN ATOMIC CHARGES AND SPIN POPULATIONS
-------------------------------------------
   0 C :   -0.154280    0.909081
   1 H :    0.072938    0.023172
   2 H :    0.032612    0.036855
   3 H :    0.048730    0.030893

  Mayer bond orders larger than 0.100000
B(  0-C ,  1-H ) :   0.9759 B(  0-C ,  2-H ) :   0.9775 B(  0-C ,  3-H ) :   0.9795

FINAL SINGLE POINT ENERGY       -39.821678380686

DIPOLE MOMENT
-------------
                                X             Y             Z
Electronic contribution:     -0.14991      -0.11425       0.05902
Nuclear contribution   :      0.18539       0.11974      -0.09935
                        -----------------------------------------
Total Dipole Moment    :      0.03548       0.00549      -0.04033
                        -----------------------------------------
Magnitude (a.u.)       :      0.05400
Magnitude (Debye)      :      0.13725

Rotational constants in cm-1:    11.117621     8.263186     4.757990
Rotational constants in MHz : 333297.894747 247724.071051 142640.939576

                             ****ORCA TERMINATED NORMALLY****
TOTAL RUN TIME: 0 days 0 hours 0 minutes 26 seconds 201 msec
