                         Program Version 5.0.3 -  RELEASE  -
|  1> !B3LYP EPR-III Autoaux
|  2> !PAL4
|  3>
|  4> * xyz 0 2
|  5>  C    -14.3540057642    -31.2087936934    -14.0957418758
|  6>  H    -14.6599894303    -30.1980861669    -14.1685729675
|  7>  H    -14.9667821148    -31.9230611766    -14.6868030362
|  8>  H    -13.3997239483    -31.4405592967    -13.5626726066
|  9> *
| 10>
| 11> %EPRNMR
| 12>         GTENSOR   TRUE
| 13>         NUCLEI    = ALL H {AISO, ADIP, AORB}
| 14>         NUCLEI    = ALL C {AISO, ADIP, AORB}
| 15> END
| 16>
| 17>
| 18>                          ****END OF INPUT****

CARTESIAN COORDINATES (ANGSTROEM)
---------------------------------
  C    -14.354006  -31.208794  -14.095742
  H    -14.659989  -30.198086  -14.168573
  H    -14.966782  -31.923061  -14.686803
  H    -13.399724  -31.440559  -13.562673

 Total Charge           Charge          ....    0
 Multiplicity           Mult            ....    2
 Number of Electrons    NEL             ....    9
 Basis Dimension        Dim             ....   73

ORBITAL ENERGIES
----------------
                 SPIN UP ORBITALS
  NO   OCC          E(Eh)            E(eV)
   0   1.0000     -10.188765      -277.2504
   1   1.0000      -0.684073       -18.6146
   2   1.0000      -0.423939       -11.5360
   3   1.0000      -0.413964       -11.2645
   4   1.0000      -0.235215        -6.4005
   5   0.0000       0.000319         0.0087
   6   0.0000       0.035773         0.9734
   7   0.0000       0.037691         1.0256
   8   0.0000       0.047407         1.2900
   9   0.0000       0.082742         2.2515

                 SPIN DOWN ORBITALS
  NO   OCC          E(Eh)            E(eV)
   0   1.0000     -10.174232      -276.8549
   1   1.0000      -0.644601       -17.5405
   2   1.0000      -0.414935       -11.2910
   3   1.0000      -0.404220       -10.9994
   4   0.0000      -0.077402        -2.1062
   5   0.0000       0.003610         0.0982
   6   0.0000       0.035468         0.9651
   7   0.0000       0.037308         1.0152
   8   0.0000       0.060693         1.6515

MULLIKEN ATOMIC CHARGES AND SPIN POPULATIONS
--------------------------------------------
   0 C :   -0.427412    1.105381
   1 H :    0.140353   -0.033218
   2 H :    0.142201   -0.036135
   3 H :    0.144859   -0.036027
Sum of atomic charges         :   -0.0000000

LOEWDIN ATOMIC CHARGES AND SPIN POPULATIONS
-------------------------------------------
   0 C :   -0.163262    0.914077
   1 H :    0.035178    0.034971
   2 H :    0.062396    0.026012
   3 H :    0.065688    0.024940

  Mayer bond orders larger than 0.100000
B(  0-C ,  1-H ) :   0.9761 B(  0-C ,  2-H ) :   0.9753 B(  0-C ,  3-H ) :   0.9743

FINAL SINGLE POINT ENERGY       -39.825866411761

DIPOLE MOMENT
-------------
                                X             Y             Z
Electronic contribution:     -0.01274      -0.02650       0.06491
Nuclear contribution   :      0.02662       0.04847      -0.09805
                        -----------------------------------------
Total Dipole Moment    :      0.01388       0.02197      -0.03314
                        -----------------------------------------
Magnitude (a.u.)       :      0.04211
Magnitude (Debye)      :      0.10705

Rotational constants in cm-1:    10.322640     8.414996     4.648730
Rotational constants in MHz : 309464.973747 252275.237291 139365.412541

                             ****ORCA TERMINATED NORMALLY****
TOTAL RUN TIME: 0 days 0 hours 0 minutes 24 seconds 868 msec
