                         Program Version 5.0.3 -  RELEASE  -
|  1> !B3LYP EPR-III Autoaux
|  2> !PAL4
|  3>
|  4> * xyz 0 2
|  5>  C    -65.5342283081    -88.8146854362    -26.9826779478
|  6>  H    -65.1494089979    -87.8349792615    -26.8892824759
|  7>  H    -66.6105377966    -88.9337076687    -27.0024385584
|  8>  H    -64.9202471096    -89.7078892305    -27.0228013045
|  9> *
| 10>
| 11> %EPRNMR
| 12>         GTENSOR   TRUE
| 13>         NUCLEI    = ALL H {AISO, ADIP, AORB}
| 14>         NUCLEI    = ALL C {AISO, ADIP, AORB}
| 15> END
| 16>
| 17>
| 18>                          ****END OF INPUT****

CARTESIAN COORDINATES (ANGSTROEM)
---------------------------------
  C    -65.534228  -88.814685  -26.982678
  H    -65.149409  -87.834979  -26.889282
  H    -66.610538  -88.933708  -27.002439
  H    -64.920247  -89.707889  -27.022801

 Total Charge           Charge          ....    0
 Multiplicity           Mult            ....    2
 Number of Electrons    NEL             ....    9
 Basis Dimension        Dim             ....   73

ORBITAL ENERGIES
----------------
                 SPIN UP ORBITALS
  NO   OCC          E(Eh)            E(eV)
   0   1.0000     -10.182499      -277.0799
   1   1.0000      -0.688973       -18.7479
   2   1.0000      -0.430913       -11.7257
   3   1.0000      -0.417110       -11.3501
   4   1.0000      -0.234665        -6.3856
   5   0.0000       0.001210         0.0329
   6   0.0000       0.036100         0.9823
   7   0.0000       0.037477         1.0198
   8   0.0000       0.047528         1.2933
   9   0.0000       0.090282         2.4567

                 SPIN DOWN ORBITALS
  NO   OCC          E(Eh)            E(eV)
   0   1.0000     -10.168105      -276.6882
   1   1.0000      -0.649577       -17.6759
   2   1.0000      -0.421424       -11.4675
   3   1.0000      -0.407570       -11.0906
   4   0.0000      -0.077343        -2.1046
   5   0.0000       0.004289         0.1167
   6   0.0000       0.035714         0.9718
   7   0.0000       0.037065         1.0086
   8   0.0000       0.060776         1.6538

MULLIKEN ATOMIC CHARGES AND SPIN POPULATIONS
--------------------------------------------
   0 C :   -0.426877    1.101905
   1 H :    0.145294   -0.032680
   2 H :    0.138226   -0.034792
   3 H :    0.143357   -0.034433
Sum of atomic charges         :   -0.0000000

LOEWDIN ATOMIC CHARGES AND SPIN POPULATIONS
-------------------------------------------
   0 C :   -0.144790    0.904951
   1 H :    0.039500    0.034663
   2 H :    0.051730    0.030439
   3 H :    0.053560    0.029947

  Mayer bond orders larger than 0.100000
B(  0-C ,  1-H ) :   0.9780 B(  0-C ,  2-H ) :   0.9788 B(  0-C ,  3-H ) :   0.9778

FINAL SINGLE POINT ENERGY       -39.828251579921

DIPOLE MOMENT
-------------
                                X             Y             Z
Electronic contribution:      0.05287       0.02525      -0.01444
Nuclear contribution   :     -0.05809      -0.02437       0.02512
                        -----------------------------------------
Total Dipole Moment    :     -0.00522       0.00088       0.01067
                        -----------------------------------------
Magnitude (a.u.)       :      0.01191
Magnitude (Debye)      :      0.03028

Rotational constants in cm-1:    10.018438     9.308898     4.826364
Rotational constants in MHz : 300345.207362 279073.744270 144690.737881

                             ****ORCA TERMINATED NORMALLY****
TOTAL RUN TIME: 0 days 0 hours 0 minutes 19 seconds 509 msec
