                         Program Version 5.0.3 -  RELEASE  -
|  1> !B3LYP EPR-III Autoaux
|  2> !PAL4
|  3>
|  4> * xyz 0 2
|  5>  C    -27.2345426363    -45.7014119101    -17.4272873863
|  6>  H    -27.6560626416    -46.7493201801    -17.3551261224
|  7>  H    -26.2662921781    -45.4915416902    -17.6657556809
|  8>  H    -27.9706640501    -44.9550855779    -17.1939307321
|  9> *
| 10>
| 11> %EPRNMR
| 12>         GTENSOR   TRUE
| 13>         NUCLEI    = ALL H {AISO, ADIP, AORB}
| 14>         NUCLEI    = ALL C {AISO, ADIP, AORB}
| 15> END
| 16>
| 17>
| 18>                          ****END OF INPUT****

CARTESIAN COORDINATES (ANGSTROEM)
---------------------------------
  C    -27.234543  -45.701412  -17.427287
  H    -27.656063  -46.749320  -17.355126
  H    -26.266292  -45.491542  -17.665756
  H    -27.970664  -44.955086  -17.193931

 Total Charge           Charge          ....    0
 Multiplicity           Mult            ....    2
 Number of Electrons    NEL             ....    9
 Basis Dimension        Dim             ....   73

ORBITAL ENERGIES
----------------
                 SPIN UP ORBITALS
  NO   OCC          E(Eh)            E(eV)
   0   1.0000     -10.182593      -277.0824
   1   1.0000      -0.690147       -18.7798
   2   1.0000      -0.442847       -12.0505
   3   1.0000      -0.405335       -11.0297
   4   1.0000      -0.234987        -6.3943
   5   0.0000       0.001073         0.0292
   6   0.0000       0.035081         0.9546
   7   0.0000       0.038296         1.0421
   8   0.0000       0.047489         1.2922
   9   0.0000       0.085574         2.3286

                 SPIN DOWN ORBITALS
  NO   OCC          E(Eh)            E(eV)
   0   1.0000     -10.168179      -276.6902
   1   1.0000      -0.650717       -17.7069
   2   1.0000      -0.433161       -11.7869
   3   1.0000      -0.395975       -10.7750
   4   0.0000      -0.077528        -2.1096
   5   0.0000       0.004166         0.1134
   6   0.0000       0.034717         0.9447
   7   0.0000       0.037908         1.0315
   8   0.0000       0.060714         1.6521

MULLIKEN ATOMIC CHARGES AND SPIN POPULATIONS
--------------------------------------------
   0 C :   -0.428520    1.102516
   1 H :    0.135245   -0.038361
   2 H :    0.152811   -0.029543
   3 H :    0.140465   -0.034611
Sum of atomic charges         :    0.0000000

LOEWDIN ATOMIC CHARGES AND SPIN POPULATIONS
-------------------------------------------
   0 C :   -0.141352    0.904492
   1 H :    0.073786    0.022548
   2 H :    0.019656    0.041139
   3 H :    0.047910    0.031821

  Mayer bond orders larger than 0.100000
B(  0-C ,  1-H ) :   0.9789 B(  0-C ,  2-H ) :   0.9780 B(  0-C ,  3-H ) :   0.9788

FINAL SINGLE POINT ENERGY       -39.823591799375

DIPOLE MOMENT
-------------
                                X             Y             Z
Electronic contribution:      0.13602       0.07542      -0.04234
Nuclear contribution   :     -0.14194      -0.06874       0.05025
                        -----------------------------------------
Total Dipole Moment    :     -0.00592       0.00668       0.00792
                        -----------------------------------------
Magnitude (a.u.)       :      0.01193
Magnitude (Debye)      :      0.03033

Rotational constants in cm-1:    10.140055     9.187377     4.820428
Rotational constants in MHz : 303991.216074 275430.645973 144512.789484

                             ****ORCA TERMINATED NORMALLY****
TOTAL RUN TIME: 0 days 0 hours 0 minutes 27 seconds 279 msec
