                         Program Version 5.0.3 -  RELEASE  -
|  1> !B3LYP EPR-III Autoaux
|  2> !PAL4
|  3>
|  4> * xyz 0 2
|  5>  C    -73.8342942619    -98.8479044061    -28.8939759997
|  6>  H    -74.3473479332    -97.9034291156    -28.8105856767
|  7>  H    -74.3673975591    -99.6979703909    -28.9859260168
|  8>  H    -72.7520026389    -99.0582748326    -28.8672826607
|  9> *
| 10>
| 11> %EPRNMR
| 12>         GTENSOR   TRUE
| 13>         NUCLEI    = ALL H {AISO, ADIP, AORB}
| 14>         NUCLEI    = ALL C {AISO, ADIP, AORB}
| 15> END
| 16>
| 17>
| 18>                          ****END OF INPUT****

CARTESIAN COORDINATES (ANGSTROEM)
---------------------------------
  C    -73.834294  -98.847904  -28.893976
  H    -74.347348  -97.903429  -28.810586
  H    -74.367398  -99.697970  -28.985926
  H    -72.752003  -99.058275  -28.867283

 Total Charge           Charge          ....    0
 Multiplicity           Mult            ....    2
 Number of Electrons    NEL             ....    9
 Basis Dimension        Dim             ....   73

ORBITAL ENERGIES
----------------
                 SPIN UP ORBITALS
  NO   OCC          E(Eh)            E(eV)
   0   1.0000     -10.178844      -276.9804
   1   1.0000      -0.694167       -18.8892
   2   1.0000      -0.437023       -11.8920
   3   1.0000      -0.414811       -11.2876
   4   1.0000      -0.234776        -6.3886
   5   0.0000       0.001187         0.0323
   6   0.0000       0.035211         0.9581
   7   0.0000       0.038207         1.0397
   8   0.0000       0.047457         1.2914
   9   0.0000       0.084275         2.2932

                 SPIN DOWN ORBITALS
  NO   OCC          E(Eh)            E(eV)
   0   1.0000     -10.164544      -276.5913
   1   1.0000      -0.655117       -17.8267
   2   1.0000      -0.427644       -11.6368
   3   1.0000      -0.404756       -11.0140
   4   0.0000      -0.077634        -2.1125
   5   0.0000       0.004206         0.1144
   6   0.0000       0.034823         0.9476
   7   0.0000       0.037739         1.0269
   8   0.0000       0.060660         1.6506

MULLIKEN ATOMIC CHARGES AND SPIN POPULATIONS
--------------------------------------------
   0 C :   -0.432115    1.100748
   1 H :    0.148513   -0.033382
   2 H :    0.142782   -0.030985
   3 H :    0.140821   -0.036381
Sum of atomic charges         :   -0.0000000

LOEWDIN ATOMIC CHARGES AND SPIN POPULATIONS
-------------------------------------------
   0 C :   -0.133087    0.899152
   1 H :    0.054447    0.030597
   2 H :    0.013448    0.043432
   3 H :    0.065192    0.026819

  Mayer bond orders larger than 0.100000
B(  0-C ,  1-H ) :   0.9790 B(  0-C ,  2-H ) :   0.9797 B(  0-C ,  3-H ) :   0.9803

FINAL SINGLE POINT ENERGY       -39.822115659467

DIPOLE MOMENT
-------------
                                X             Y             Z
Electronic contribution:     -0.04124       0.06227      -0.00834
Nuclear contribution   :      0.02708      -0.08691       0.01359
                        -----------------------------------------
Total Dipole Moment    :     -0.01416      -0.02464       0.00525
                        -----------------------------------------
Magnitude (a.u.)       :      0.02890
Magnitude (Debye)      :      0.07346

Rotational constants in cm-1:    11.606052     8.567378     4.929536
Rotational constants in MHz : 347940.687121 256843.544792 147783.782195

                             ****ORCA TERMINATED NORMALLY****
TOTAL RUN TIME: 0 days 0 hours 0 minutes 21 seconds 601 msec
