                         Program Version 5.0.3 -  RELEASE  -
|  1> !B3LYP EPR-III Autoaux
|  2> !PAL4
|  3>
|  4> * xyz 0 2
|  5>  C    -88.0436682751   -116.2983033269    -32.2513023500
|  6>  H    -88.0348969168   -115.2359847522    -32.1632343866
|  7>  H    -88.9954760547   -116.7811599116    -32.3367033915
|  8>  H    -87.1228228293   -116.9048323141    -32.2606716325
|  9> *
| 10>
| 11> %EPRNMR
| 12>         GTENSOR   TRUE
| 13>         NUCLEI    = ALL H {AISO, ADIP, AORB}
| 14>         NUCLEI    = ALL C {AISO, ADIP, AORB}
| 15> END
| 16>
| 17>
| 18>                          ****END OF INPUT****

CARTESIAN COORDINATES (ANGSTROEM)
---------------------------------
  C    -88.043668  -116.298303  -32.251302
  H    -88.034897  -115.235985  -32.163234
  H    -88.995476  -116.781160  -32.336703
  H    -87.122823  -116.904832  -32.260672

 Total Charge           Charge          ....    0
 Multiplicity           Mult            ....    2
 Number of Electrons    NEL             ....    9
 Basis Dimension        Dim             ....   73

ORBITAL ENERGIES
----------------
                 SPIN UP ORBITALS
  NO   OCC          E(Eh)            E(eV)
   0   1.0000     -10.183969      -277.1199
   1   1.0000      -0.687673       -18.7125
   2   1.0000      -0.425827       -11.5873
   3   1.0000      -0.419978       -11.4282
   4   1.0000      -0.234615        -6.3842
   5   0.0000       0.001038         0.0282
   6   0.0000       0.036358         0.9894
   7   0.0000       0.037191         1.0120
   8   0.0000       0.047507         1.2927
   9   0.0000       0.088831         2.4172

                 SPIN DOWN ORBITALS
  NO   OCC          E(Eh)            E(eV)
   0   1.0000     -10.169547      -276.7274
   1   1.0000      -0.648225       -17.6391
   2   1.0000      -0.416428       -11.3316
   3   1.0000      -0.410445       -11.1688
   4   0.0000      -0.077253        -2.1022
   5   0.0000       0.004169         0.1134
   6   0.0000       0.035988         0.9793
   7   0.0000       0.036785         1.0010
   8   0.0000       0.060772         1.6537

MULLIKEN ATOMIC CHARGES AND SPIN POPULATIONS
--------------------------------------------
   0 C :   -0.426847    1.102910
   1 H :    0.143685   -0.033411
   2 H :    0.140769   -0.033919
   3 H :    0.142393   -0.035580
Sum of atomic charges         :   -0.0000000

LOEWDIN ATOMIC CHARGES AND SPIN POPULATIONS
-------------------------------------------
   0 C :   -0.149160    0.907162
   1 H :    0.043129    0.033217
   2 H :    0.044957    0.032538
   3 H :    0.061075    0.027083

  Mayer bond orders larger than 0.100000
B(  0-C ,  1-H ) :   0.9776 B(  0-C ,  2-H ) :   0.9779 B(  0-C ,  3-H ) :   0.9769

FINAL SINGLE POINT ENERGY       -39.828210563308

DIPOLE MOMENT
-------------
                                X             Y             Z
Electronic contribution:      0.00957       0.02164       0.00381
Nuclear contribution   :     -0.01663      -0.02029      -0.00502
                        -----------------------------------------
Total Dipole Moment    :     -0.00706       0.00136      -0.00121
                        -----------------------------------------
Magnitude (a.u.)       :      0.00729
Magnitude (Debye)      :      0.01853

Rotational constants in cm-1:    10.041010     9.123661     4.780199
Rotational constants in MHz : 301021.918565 273520.477903 143306.750662

                             ****ORCA TERMINATED NORMALLY****
TOTAL RUN TIME: 0 days 0 hours 0 minutes 21 seconds 871 msec
