                         Program Version 5.0.3 -  RELEASE  -
|  1> !B3LYP EPR-III Autoaux
|  2> !PAL4
|  3>
|  4> * xyz 0 2
|  5>  C    -85.9693867677   -113.7332722637    -31.7961613877
|  6>  H    -84.9330568085   -113.9137654761    -31.7656060439
|  7>  H    -86.2524443594   -112.7153642059    -31.7143011022
|  8>  H    -86.6590135478   -114.5264227783    -31.8848005322
|  9> *
| 10>
| 11> %EPRNMR
| 12>         GTENSOR   TRUE
| 13>         NUCLEI    = ALL H {AISO, ADIP, AORB}
| 14>         NUCLEI    = ALL C {AISO, ADIP, AORB}
| 15> END
| 16>
| 17>
| 18>                          ****END OF INPUT****

CARTESIAN COORDINATES (ANGSTROEM)
---------------------------------
  C    -85.969387  -113.733272  -31.796161
  H    -84.933057  -113.913765  -31.765606
  H    -86.252444  -112.715364  -31.714301
  H    -86.659014  -114.526423  -31.884801

 Total Charge           Charge          ....    0
 Multiplicity           Mult            ....    2
 Number of Electrons    NEL             ....    9
 Basis Dimension        Dim             ....   73

ORBITAL ENERGIES
----------------
                 SPIN UP ORBITALS
  NO   OCC          E(Eh)            E(eV)
   0   1.0000     -10.176550      -276.9180
   1   1.0000      -0.694248       -18.8915
   2   1.0000      -0.435487       -11.8502
   3   1.0000      -0.420912       -11.4536
   4   1.0000      -0.234571        -6.3830
   5   0.0000       0.001741         0.0474
   6   0.0000       0.036051         0.9810
   7   0.0000       0.037623         1.0238
   8   0.0000       0.047624         1.2959
   9   0.0000       0.093044         2.5318

                 SPIN DOWN ORBITALS
  NO   OCC          E(Eh)            E(eV)
   0   1.0000     -10.162264      -276.5293
   1   1.0000      -0.655060       -17.8251
   2   1.0000      -0.425879       -11.5888
   3   1.0000      -0.411085       -11.1862
   4   0.0000      -0.077500        -2.1089
   5   0.0000       0.004665         0.1270
   6   0.0000       0.035636         0.9697
   7   0.0000       0.037171         1.0115
   8   0.0000       0.060820         1.6550

MULLIKEN ATOMIC CHARGES AND SPIN POPULATIONS
--------------------------------------------
   0 C :   -0.427671    1.098486
   1 H :    0.140193   -0.032974
   2 H :    0.141496   -0.033289
   3 H :    0.145982   -0.032223
Sum of atomic charges         :   -0.0000000

LOEWDIN ATOMIC CHARGES AND SPIN POPULATIONS
-------------------------------------------
   0 C :   -0.127608    0.896363
   1 H :    0.040382    0.035221
   2 H :    0.044549    0.033881
   3 H :    0.042677    0.034536

  Mayer bond orders larger than 0.100000
B(  0-C ,  1-H ) :   0.9811 B(  0-C ,  2-H ) :   0.9809 B(  0-C ,  3-H ) :   0.9803

FINAL SINGLE POINT ENERGY       -39.827286576479

DIPOLE MOMENT
-------------
                                X             Y             Z
Electronic contribution:     -0.04058      -0.03043      -0.01223
Nuclear contribution   :      0.04770       0.03318       0.01782
                        -----------------------------------------
Total Dipole Moment    :      0.00712       0.00274       0.00559
                        -----------------------------------------
Magnitude (a.u.)       :      0.00946
Magnitude (Debye)      :      0.02403

Rotational constants in cm-1:    10.554447     9.512518     5.003459
Rotational constants in MHz : 316414.360181 285178.108561 149999.922848

                             ****ORCA TERMINATED NORMALLY****
TOTAL RUN TIME: 0 days 0 hours 0 minutes 23 seconds 338 msec
