                         Program Version 5.0.3 -  RELEASE  -
|  1> !B3LYP EPR-III Autoaux
|  2> !PAL4
|  3>
|  4> * xyz 0 2
|  5>  C    -67.7116533419    -91.4289168996    -27.4754251673
|  6>  H    -68.8160099100    -91.3642076124    -27.4948440192
|  7>  H    -67.3428552480    -92.4010184412    -27.5834458512
|  8>  H    -67.0373994719    -90.4968647916    -27.3947795779
|  9> *
| 10>
| 11> %EPRNMR
| 12>         GTENSOR   TRUE
| 13>         NUCLEI    = ALL H {AISO, ADIP, AORB}
| 14>         NUCLEI    = ALL C {AISO, ADIP, AORB}
| 15> END
| 16>
| 17>
| 18>                          ****END OF INPUT****

CARTESIAN COORDINATES (ANGSTROEM)
---------------------------------
  C    -67.711653  -91.428917  -27.475425
  H    -68.816010  -91.364208  -27.494844
  H    -67.342855  -92.401018  -27.583446
  H    -67.037399  -90.496865  -27.394780

 Total Charge           Charge          ....    0
 Multiplicity           Mult            ....    2
 Number of Electrons    NEL             ....    9
 Basis Dimension        Dim             ....   73

ORBITAL ENERGIES
----------------
                 SPIN UP ORBITALS
  NO   OCC          E(Eh)            E(eV)
   0   1.0000     -10.190286      -277.2918
   1   1.0000      -0.683211       -18.5911
   2   1.0000      -0.423144       -11.5143
   3   1.0000      -0.412471       -11.2239
   4   1.0000      -0.234856        -6.3907
   5   0.0000      -0.000011        -0.0003
   6   0.0000       0.035814         0.9745
   7   0.0000       0.037451         1.0191
   8   0.0000       0.047379         1.2892
   9   0.0000       0.080872         2.2006

                 SPIN DOWN ORBITALS
  NO   OCC          E(Eh)            E(eV)
   0   1.0000     -10.175720      -276.8954
   1   1.0000      -0.643614       -17.5136
   2   1.0000      -0.413807       -11.2603
   3   1.0000      -0.403185       -10.9712
   4   0.0000      -0.077107        -2.0982
   5   0.0000       0.003390         0.0922
   6   0.0000       0.035566         0.9678
   7   0.0000       0.037071         1.0088
   8   0.0000       0.060698         1.6517

MULLIKEN ATOMIC CHARGES AND SPIN POPULATIONS
--------------------------------------------
   0 C :   -0.428236    1.107653
   1 H :    0.138720   -0.036410
   2 H :    0.145312   -0.032488
   3 H :    0.144205   -0.038756
Sum of atomic charges         :   -0.0000000

LOEWDIN ATOMIC CHARGES AND SPIN POPULATIONS
-------------------------------------------
   0 C :   -0.166248    0.916460
   1 H :    0.058407    0.027001
   2 H :    0.027872    0.037255
   3 H :    0.079969    0.019284

  Mayer bond orders larger than 0.100000
B(  0-C ,  1-H ) :   0.9755 B(  0-C ,  2-H ) :   0.9749 B(  0-C ,  3-H ) :   0.9725

FINAL SINGLE POINT ENERGY       -39.823464992548

DIPOLE MOMENT
-------------
                                X             Y             Z
Electronic contribution:      0.04293      -0.03153       0.02022
Nuclear contribution   :     -0.04595       0.01848      -0.03507
                        -----------------------------------------
Total Dipole Moment    :     -0.00302      -0.01305      -0.01485
                        -----------------------------------------
Magnitude (a.u.)       :      0.02000
Magnitude (Debye)      :      0.05084

Rotational constants in cm-1:    10.311173     8.258930     4.587397
Rotational constants in MHz : 309121.180442 247596.493436 137526.694496

                             ****ORCA TERMINATED NORMALLY****
TOTAL RUN TIME: 0 days 0 hours 0 minutes 22 seconds 523 msec
