                         Program Version 5.0.3 -  RELEASE  -
|  1> !B3LYP EPR-III Autoaux
|  2> !PAL4
|  3>
|  4> * xyz 0 2
|  5>  C     -3.9303136540    -19.4023643957    -11.4070023796
|  6>  H     -4.6357568271    -19.0907557712    -10.5814178990
|  7>  H     -4.3566480510    -20.1054956350    -12.0544211326
|  8>  H     -2.9403724777    -18.9306730380    -11.5785547133
|  9> *
| 10>
| 11> %EPRNMR
| 12>         GTENSOR   TRUE
| 13>         NUCLEI    = ALL H {AISO, ADIP, AORB}
| 14>         NUCLEI    = ALL C {AISO, ADIP, AORB}
| 15> END
| 16>
| 17>
| 18>                          ****END OF INPUT****

CARTESIAN COORDINATES (ANGSTROEM)
---------------------------------
  C     -3.930314  -19.402364  -11.407002
  H     -4.635757  -19.090756  -10.581418
  H     -4.356648  -20.105496  -12.054421
  H     -2.940372  -18.930673  -11.578555

 Total Charge           Charge          ....    0
 Multiplicity           Mult            ....    2
 Number of Electrons    NEL             ....    9
 Basis Dimension        Dim             ....   73

ORBITAL ENERGIES
----------------
                 SPIN UP ORBITALS
  NO   OCC          E(Eh)            E(eV)
   0   1.0000     -10.188669      -277.2478
   1   1.0000      -0.684459       -18.6251
   2   1.0000      -0.429728       -11.6935
   3   1.0000      -0.408572       -11.1178
   4   1.0000      -0.235143        -6.3986
   5   0.0000       0.000317         0.0086
   6   0.0000       0.035550         0.9674
   7   0.0000       0.037846         1.0298
   8   0.0000       0.047401         1.2899
   9   0.0000       0.084015         2.2862

                 SPIN DOWN ORBITALS
  NO   OCC          E(Eh)            E(eV)
   0   1.0000     -10.174137      -276.8524
   1   1.0000      -0.644949       -17.5500
   2   1.0000      -0.420394       -11.4395
   3   1.0000      -0.399171       -10.8620
   4   0.0000      -0.077364        -2.1052
   5   0.0000       0.003612         0.0983
   6   0.0000       0.035239         0.9589
   7   0.0000       0.037477         1.0198
   8   0.0000       0.060688         1.6514

MULLIKEN ATOMIC CHARGES AND SPIN POPULATIONS
--------------------------------------------
   0 C :   -0.427809    1.105822
   1 H :    0.136361   -0.037880
   2 H :    0.144262   -0.032599
   3 H :    0.147186   -0.035343
Sum of atomic charges         :   -0.0000000

LOEWDIN ATOMIC CHARGES AND SPIN POPULATIONS
-------------------------------------------
   0 C :   -0.161778    0.913827
   1 H :    0.069428    0.023231
   2 H :    0.029482    0.036916
   3 H :    0.062868    0.026025

  Mayer bond orders larger than 0.100000
B(  0-C ,  1-H ) :   0.9764 B(  0-C ,  2-H ) :   0.9757 B(  0-C ,  3-H ) :   0.9740

FINAL SINGLE POINT ENERGY       -39.824773203108

DIPOLE MOMENT
-------------
                                X             Y             Z
Electronic contribution:      0.08629      -0.04811      -0.03010
Nuclear contribution   :     -0.10630       0.06008       0.00496
                        -----------------------------------------
Total Dipole Moment    :     -0.02002       0.01198      -0.02515
                        -----------------------------------------
Magnitude (a.u.)       :      0.03430
Magnitude (Debye)      :      0.08719

Rotational constants in cm-1:    10.305302     8.437054     4.647442
Rotational constants in MHz : 308945.170962 252936.522164 139326.799080

                             ****ORCA TERMINATED NORMALLY****
TOTAL RUN TIME: 0 days 0 hours 0 minutes 21 seconds 171 msec
