                         Program Version 5.0.3 -  RELEASE  -
|  1> !B3LYP EPR-III Autoaux
|  2> !PAL4
|  3>
|  4> * xyz 0 2
|  5>  C      3.9764411207    -10.3511966232     -9.3656890696
|  6>  H      4.4249398360     -9.5220232716     -9.9985302898
|  7>  H      3.0165805306    -10.6772711814     -9.3064958489
|  8>  H      4.7350246285    -10.6806161726     -8.6810466289
|  9> *
| 10>
| 11> %EPRNMR
| 12>         GTENSOR   TRUE
| 13>         NUCLEI    = ALL H {AISO, ADIP, AORB}
| 14>         NUCLEI    = ALL C {AISO, ADIP, AORB}
| 15> END
| 16>
| 17>
| 18>                          ****END OF INPUT****

CARTESIAN COORDINATES (ANGSTROEM)
---------------------------------
  C      3.976441  -10.351197   -9.365689
  H      4.424940   -9.522023   -9.998530
  H      3.016581  -10.677271   -9.306496
  H      4.735025  -10.680616   -8.681047

 Total Charge           Charge          ....    0
 Multiplicity           Mult            ....    2
 Number of Electrons    NEL             ....    9
 Basis Dimension        Dim             ....   73

ORBITAL ENERGIES
----------------
                 SPIN UP ORBITALS
  NO   OCC          E(Eh)            E(eV)
   0   1.0000     -10.182770      -277.0873
   1   1.0000      -0.690957       -18.8019
   2   1.0000      -0.448482       -12.2038
   3   1.0000      -0.398553       -10.8452
   4   1.0000      -0.235689        -6.4134
   5   0.0000       0.000937         0.0255
   6   0.0000       0.034200         0.9306
   7   0.0000       0.039064         1.0630
   8   0.0000       0.047455         1.2913
   9   0.0000       0.082191         2.2365

                 SPIN DOWN ORBITALS
  NO   OCC          E(Eh)            E(eV)
   0   1.0000     -10.168334      -276.6944
   1   1.0000      -0.651671       -17.7329
   2   1.0000      -0.438901       -11.9431
   3   1.0000      -0.388960       -10.5841
   4   0.0000      -0.077937        -2.1208
   5   0.0000       0.004017         0.1093
   6   0.0000       0.033878         0.9219
   7   0.0000       0.038662         1.0520
   8   0.0000       0.060650         1.6504

MULLIKEN ATOMIC CHARGES AND SPIN POPULATIONS
--------------------------------------------
   0 C :   -0.430431    1.102429
   1 H :    0.138400   -0.038979
   2 H :    0.155768   -0.028517
   3 H :    0.136263   -0.034934
Sum of atomic charges         :    0.0000000

LOEWDIN ATOMIC CHARGES AND SPIN POPULATIONS
-------------------------------------------
   0 C :   -0.141935    0.904506
   1 H :    0.076529    0.021813
   2 H :    0.018298    0.041672
   3 H :    0.047108    0.032009

  Mayer bond orders larger than 0.100000
B(  0-C ,  1-H ) :   0.9788 B(  0-C ,  2-H ) :   0.9783 B(  0-C ,  3-H ) :   0.9797

FINAL SINGLE POINT ENERGY       -39.820642221128

DIPOLE MOMENT
-------------
                                X             Y             Z
Electronic contribution:     -0.17671      -0.10870      -0.04458
Nuclear contribution   :      0.18529       0.13017       0.08319
                        -----------------------------------------
Total Dipole Moment    :      0.00858       0.02147       0.03861
                        -----------------------------------------
Magnitude (a.u.)       :      0.04500
Magnitude (Debye)      :      0.11438

Rotational constants in cm-1:    10.840404     8.673261     4.831772
Rotational constants in MHz : 324987.121593 260017.827539 144852.873636

                             ****ORCA TERMINATED NORMALLY****
TOTAL RUN TIME: 0 days 0 hours 0 minutes 28 seconds 246 msec
