                         Program Version 5.0.3 -  RELEASE  -
|  1> !B3LYP EPR-III Autoaux
|  2> !PAL4
|  3>
|  4> * xyz 0 2
|  5>  C    -65.8186397282    -89.1462207430    -27.0484326036
|  6>  H    -65.6038527630    -88.1085337148    -26.9483674007
|  7>  H    -66.8547549006    -89.5337840883    -27.1011340303
|  8>  H    -64.9828313457    -89.8075930533    -27.0676634847
|  9> *
| 10>
| 11> %EPRNMR
| 12>         GTENSOR   TRUE
| 13>         NUCLEI    = ALL H {AISO, ADIP, AORB}
| 14>         NUCLEI    = ALL C {AISO, ADIP, AORB}
| 15> END
| 16>
| 17>
| 18>                          ****END OF INPUT****

CARTESIAN COORDINATES (ANGSTROEM)
---------------------------------
  C    -65.818640  -89.146221  -27.048433
  H    -65.603853  -88.108534  -26.948367
  H    -66.854755  -89.533784  -27.101134
  H    -64.982831  -89.807593  -27.067663

 Total Charge           Charge          ....    0
 Multiplicity           Mult            ....    2
 Number of Electrons    NEL             ....    9
 Basis Dimension        Dim             ....   73

ORBITAL ENERGIES
----------------
                 SPIN UP ORBITALS
  NO   OCC          E(Eh)            E(eV)
   0   1.0000     -10.183782      -277.1148
   1   1.0000      -0.687947       -18.7200
   2   1.0000      -0.424600       -11.5539
   3   1.0000      -0.421295       -11.4640
   4   1.0000      -0.234635        -6.3848
   5   0.0000       0.001032         0.0281
   6   0.0000       0.036354         0.9892
   7   0.0000       0.037194         1.0121
   8   0.0000       0.047509         1.2928
   9   0.0000       0.088261         2.4017

                 SPIN DOWN ORBITALS
  NO   OCC          E(Eh)            E(eV)
   0   1.0000     -10.169361      -276.7224
   1   1.0000      -0.648523       -17.6472
   2   1.0000      -0.415301       -11.3009
   3   1.0000      -0.411631       -11.2011
   4   0.0000      -0.077268        -2.1026
   5   0.0000       0.004161         0.1132
   6   0.0000       0.035994         0.9795
   7   0.0000       0.036779         1.0008
   8   0.0000       0.060771         1.6537

MULLIKEN ATOMIC CHARGES AND SPIN POPULATIONS
--------------------------------------------
   0 C :   -0.426905    1.102858
   1 H :    0.142660   -0.033442
   2 H :    0.142790   -0.035801
   3 H :    0.141455   -0.033615
Sum of atomic charges         :    0.0000000

LOEWDIN ATOMIC CHARGES AND SPIN POPULATIONS
-------------------------------------------
   0 C :   -0.148575    0.906902
   1 H :    0.042232    0.033527
   2 H :    0.063513    0.026270
   3 H :    0.042830    0.033301

  Mayer bond orders larger than 0.100000
B(  0-C ,  1-H ) :   0.9778 B(  0-C ,  2-H ) :   0.9768 B(  0-C ,  3-H ) :   0.9780

FINAL SINGLE POINT ENERGY       -39.827862807484

DIPOLE MOMENT
-------------
                                X             Y             Z
Electronic contribution:     -0.00273       0.00963      -0.01264
Nuclear contribution   :      0.01085      -0.00843       0.02109
                        -----------------------------------------
Total Dipole Moment    :      0.00813       0.00120       0.00844
                        -----------------------------------------
Magnitude (a.u.)       :      0.01178
Magnitude (Debye)      :      0.02994

Rotational constants in cm-1:    10.178799     9.025532     4.784361
Rotational constants in MHz : 305152.714294 270578.653760 143431.535510

                             ****ORCA TERMINATED NORMALLY****
TOTAL RUN TIME: 0 days 0 hours 0 minutes 18 seconds 847 msec
