                         Program Version 5.0.3 -  RELEASE  -
|  1> !B3LYP EPR-III Autoaux
|  2> !PAL4
|  3>
|  4> * xyz 0 2
|  5>  C    -55.7828583953    -77.6461687926    -24.6263817985
|  6>  H    -55.1876100139    -78.5725959047    -24.7238752754
|  7>  H    -55.4262785319    -76.5764454493    -24.5176724496
|  8>  H    -56.8512924511    -77.7086634369    -24.6791792774
|  9> *
| 10>
| 11> %EPRNMR
| 12>         GTENSOR   TRUE
| 13>         NUCLEI    = ALL H {AISO, ADIP, AORB}
| 14>         NUCLEI    = ALL C {AISO, ADIP, AORB}
| 15> END
| 16>
| 17>
| 18>                          ****END OF INPUT****

CARTESIAN COORDINATES (ANGSTROEM)
---------------------------------
  C    -55.782858  -77.646169  -24.626382
  H    -55.187610  -78.572596  -24.723875
  H    -55.426279  -76.576445  -24.517672
  H    -56.851292  -77.708663  -24.679179

 Total Charge           Charge          ....    0
 Multiplicity           Mult            ....    2
 Number of Electrons    NEL             ....    9
 Basis Dimension        Dim             ....   73

ORBITAL ENERGIES
----------------
                 SPIN UP ORBITALS
  NO   OCC          E(Eh)            E(eV)
   0   1.0000     -10.190996      -277.3111
   1   1.0000      -0.682133       -18.5618
   2   1.0000      -0.428561       -11.6617
   3   1.0000      -0.406035       -11.0488
   4   1.0000      -0.234844        -6.3904
   5   0.0000      -0.000040        -0.0011
   6   0.0000       0.035067         0.9542
   7   0.0000       0.038189         1.0392
   8   0.0000       0.047371         1.2890
   9   0.0000       0.079476         2.1627

                 SPIN DOWN ORBITALS
  NO   OCC          E(Eh)            E(eV)
   0   1.0000     -10.176423      -276.9146
   1   1.0000      -0.642511       -17.4836
   2   1.0000      -0.419620       -11.4184
   3   1.0000      -0.396423       -10.7872
   4   0.0000      -0.077114        -2.0984
   5   0.0000       0.003364         0.0915
   6   0.0000       0.034780         0.9464
   7   0.0000       0.037815         1.0290
   8   0.0000       0.060695         1.6516

MULLIKEN ATOMIC CHARGES AND SPIN POPULATIONS
--------------------------------------------
   0 C :   -0.429666    1.108375
   1 H :    0.149128   -0.035414
   2 H :    0.142331   -0.038379
   3 H :    0.138207   -0.034582
Sum of atomic charges         :   -0.0000000

LOEWDIN ATOMIC CHARGES AND SPIN POPULATIONS
-------------------------------------------
   0 C :   -0.170626    0.917712
   1 H :    0.059820    0.026782
   2 H :    0.070766    0.022572
   3 H :    0.040040    0.032934

  Mayer bond orders larger than 0.100000
B(  0-C ,  1-H ) :   0.9729 B(  0-C ,  2-H ) :   0.9741 B(  0-C ,  3-H ) :   0.9754

FINAL SINGLE POINT ENERGY       -39.824503604411

DIPOLE MOMENT
-------------
                                X             Y             Z
Electronic contribution:      0.06608      -0.06026       0.01754
Nuclear contribution   :     -0.08739       0.06056      -0.03116
                        -----------------------------------------
Total Dipole Moment    :     -0.02131       0.00030      -0.01363
                        -----------------------------------------
Magnitude (a.u.)       :      0.02530
Magnitude (Debye)      :      0.06430

Rotational constants in cm-1:    10.442584     8.153133     4.579907
Rotational constants in MHz : 313060.800161 244424.779663 137302.158677

                             ****ORCA TERMINATED NORMALLY****
TOTAL RUN TIME: 0 days 0 hours 0 minutes 20 seconds 541 msec
