                         Program Version 5.0.3 -  RELEASE  -
|  1> !B3LYP EPR-III Autoaux
|  2> !PAL4
|  3>
|  4> * xyz 0 2
|  5>  C    -46.6180297052    -67.4224720105    -22.3164490984
|  6>  H    -47.5712390788    -67.8270655361    -22.2657726546
|  7>  H    -45.6289966167    -67.9243543122    -22.4524101818
|  8>  H    -46.5007818763    -66.4126804370    -22.1712031891
|  9> *
| 10>
| 11> %EPRNMR
| 12>         GTENSOR   TRUE
| 13>         NUCLEI    = ALL H {AISO, ADIP, AORB}
| 14>         NUCLEI    = ALL C {AISO, ADIP, AORB}
| 15> END
| 16>
| 17>
| 18>                          ****END OF INPUT****

CARTESIAN COORDINATES (ANGSTROEM)
---------------------------------
  C    -46.618030  -67.422472  -22.316449
  H    -47.571239  -67.827066  -22.265773
  H    -45.628997  -67.924354  -22.452410
  H    -46.500782  -66.412680  -22.171203

 Total Charge           Charge          ....    0
 Multiplicity           Mult            ....    2
 Number of Electrons    NEL             ....    9
 Basis Dimension        Dim             ....   73

ORBITAL ENERGIES
----------------
                 SPIN UP ORBITALS
  NO   OCC          E(Eh)            E(eV)
   0   1.0000     -10.177925      -276.9554
   1   1.0000      -0.694560       -18.8999
   2   1.0000      -0.442632       -12.0446
   3   1.0000      -0.410445       -11.1688
   4   1.0000      -0.234878        -6.3914
   5   0.0000       0.001362         0.0371
   6   0.0000       0.034936         0.9507
   7   0.0000       0.038510         1.0479
   8   0.0000       0.047572         1.2945
   9   0.0000       0.084103         2.2886

                 SPIN DOWN ORBITALS
  NO   OCC          E(Eh)            E(eV)
   0   1.0000     -10.163593      -276.5654
   1   1.0000      -0.655433       -17.8352
   2   1.0000      -0.433082       -11.7848
   3   1.0000      -0.400506       -10.8983
   4   0.0000      -0.077620        -2.1122
   5   0.0000       0.004349         0.1184
   6   0.0000       0.034572         0.9408
   7   0.0000       0.038069         1.0359
   8   0.0000       0.060763         1.6534

MULLIKEN ATOMIC CHARGES AND SPIN POPULATIONS
--------------------------------------------
   0 C :   -0.430980    1.100545
   1 H :    0.151013   -0.030841
   2 H :    0.140650   -0.037560
   3 H :    0.139316   -0.032143
Sum of atomic charges         :    0.0000000

LOEWDIN ATOMIC CHARGES AND SPIN POPULATIONS
-------------------------------------------
   0 C :   -0.130470    0.898213
   1 H :    0.033278    0.037580
   2 H :    0.072005    0.024327
   3 H :    0.025186    0.039880

  Mayer bond orders larger than 0.100000
B(  0-C ,  1-H ) :   0.9802 B(  0-C ,  2-H ) :   0.9802 B(  0-C ,  3-H ) :   0.9807

FINAL SINGLE POINT ENERGY       -39.822096722585

DIPOLE MOMENT
-------------
                                X             Y             Z
Electronic contribution:     -0.11067      -0.05259      -0.02463
Nuclear contribution   :      0.11472       0.07743       0.04494
                        -----------------------------------------
Total Dipole Moment    :      0.00405       0.02485       0.02031
                        -----------------------------------------
Magnitude (a.u.)       :      0.03235
Magnitude (Debye)      :      0.08223

Rotational constants in cm-1:    11.443525     8.733443     4.955945
Rotational constants in MHz : 343068.235244 261822.043369 148575.503272

                             ****ORCA TERMINATED NORMALLY****
TOTAL RUN TIME: 0 days 0 hours 0 minutes 21 seconds 525 msec
