                         Program Version 5.0.3 -  RELEASE  -
|  1> !B3LYP EPR-III Autoaux
|  2> !PAL4
|  3>
|  4> * xyz 0 2
|  5>  C     11.9579032316     -1.3234807321     -7.3202332143
|  6>  H     11.9083880825     -0.2101723181     -7.0793469547
|  7>  H     11.7385645594     -2.1265857235     -6.6384745785
|  8>  H     12.3295231001     -1.5380174175     -8.3350935352
|  9> *
| 10>
| 11> %EPRNMR
| 12>         GTENSOR   TRUE
| 13>         NUCLEI    = ALL H {AISO, ADIP, AORB}
| 14>         NUCLEI    = ALL C {AISO, ADIP, AORB}
| 15> END
| 16>
| 17>
| 18>                          ****END OF INPUT****

CARTESIAN COORDINATES (ANGSTROEM)
---------------------------------
  C     11.957903   -1.323481   -7.320233
  H     11.908388   -0.210172   -7.079347
  H     11.738565   -2.126586   -6.638475
  H     12.329523   -1.538017   -8.335094

 Total Charge           Charge          ....    0
 Multiplicity           Mult            ....    2
 Number of Electrons    NEL             ....    9
 Basis Dimension        Dim             ....   73

ORBITAL ENERGIES
----------------
                 SPIN UP ORBITALS
  NO   OCC          E(Eh)            E(eV)
   0   1.0000     -10.191939      -277.3368
   1   1.0000      -0.681055       -18.5324
   2   1.0000      -0.429597       -11.6899
   3   1.0000      -0.404759       -11.0141
   4   1.0000      -0.234990        -6.3944
   5   0.0000       0.000007         0.0002
   6   0.0000       0.035355         0.9620
   7   0.0000       0.037930         1.0321
   8   0.0000       0.047352         1.2885
   9   0.0000       0.082406         2.2424

                 SPIN DOWN ORBITALS
  NO   OCC          E(Eh)            E(eV)
   0   1.0000     -10.177351      -276.9398
   1   1.0000      -0.641321       -17.4512
   2   1.0000      -0.420410       -11.4399
   3   1.0000      -0.395531       -10.7630
   4   0.0000      -0.077164        -2.0997
   5   0.0000       0.003412         0.0929
   6   0.0000       0.035046         0.9537
   7   0.0000       0.037589         1.0229
   8   0.0000       0.060675         1.6511

MULLIKEN ATOMIC CHARGES AND SPIN POPULATIONS
--------------------------------------------
   0 C :   -0.427697    1.108063
   1 H :    0.140126   -0.038595
   2 H :    0.149520   -0.033311
   3 H :    0.138052   -0.036157
Sum of atomic charges         :   -0.0000000

LOEWDIN ATOMIC CHARGES AND SPIN POPULATIONS
-------------------------------------------
   0 C :   -0.171660    0.918740
   1 H :    0.072540    0.021570
   2 H :    0.044483    0.031815
   3 H :    0.054637    0.027876

  Mayer bond orders larger than 0.100000
B(  0-C ,  1-H ) :   0.9738 B(  0-C ,  2-H ) :   0.9731 B(  0-C ,  3-H ) :   0.9748

FINAL SINGLE POINT ENERGY       -39.825403124954

DIPOLE MOMENT
-------------
                                X             Y             Z
Electronic contribution:     -0.05644      -0.07492       0.06561
Nuclear contribution   :      0.07702       0.07170      -0.06911
                        -----------------------------------------
Total Dipole Moment    :      0.02059      -0.00322      -0.00350
                        -----------------------------------------
Magnitude (a.u.)       :      0.02113
Magnitude (Debye)      :      0.05370

Rotational constants in cm-1:     9.742952     8.555939     4.558363
Rotational constants in MHz : 292086.363865 256500.601801 136656.295087

                             ****ORCA TERMINATED NORMALLY****
TOTAL RUN TIME: 0 days 0 hours 0 minutes 24 seconds 227 msec
