                         Program Version 5.0.3 -  RELEASE  -
|  1> !B3LYP EPR-III Autoaux
|  2> !PAL4
|  3>
|  4> * xyz 0 2
|  5>  C    -55.3087359483    -77.1103675914    -24.5000216540
|  6>  H    -55.1450818770    -78.1500673956    -24.5877335739
|  7>  H    -54.5195862472    -76.3405793856    -24.4493193842
|  8>  H    -56.2754369513    -76.8146021278    -24.5231937712
|  9> *
| 10>
| 11> %EPRNMR
| 12>         GTENSOR   TRUE
| 13>         NUCLEI    = ALL H {AISO, ADIP, AORB}
| 14>         NUCLEI    = ALL C {AISO, ADIP, AORB}
| 15> END
| 16>
| 17>
| 18>                          ****END OF INPUT****

CARTESIAN COORDINATES (ANGSTROEM)
---------------------------------
  C    -55.308736  -77.110368  -24.500022
  H    -55.145082  -78.150067  -24.587734
  H    -54.519586  -76.340579  -24.449319
  H    -56.275437  -76.814602  -24.523194

 Total Charge           Charge          ....    0
 Multiplicity           Mult            ....    2
 Number of Electrons    NEL             ....    9
 Basis Dimension        Dim             ....   73

ORBITAL ENERGIES
----------------
                 SPIN UP ORBITALS
  NO   OCC          E(Eh)            E(eV)
   0   1.0000     -10.176724      -276.9227
   1   1.0000      -0.695066       -18.9137
   2   1.0000      -0.429734       -11.6936
   3   1.0000      -0.425312       -11.5733
   4   1.0000      -0.234698        -6.3865
   5   0.0000       0.001552         0.0422
   6   0.0000       0.036156         0.9838
   7   0.0000       0.037479         1.0199
   8   0.0000       0.047609         1.2955
   9   0.0000       0.087862         2.3908

                 SPIN DOWN ORBITALS
  NO   OCC          E(Eh)            E(eV)
   0   1.0000     -10.162419      -276.5335
   1   1.0000      -0.655957       -17.8495
   2   1.0000      -0.420299       -11.4369
   3   1.0000      -0.415217       -11.2986
   4   0.0000      -0.077525        -2.1096
   5   0.0000       0.004508         0.1227
   6   0.0000       0.035771         0.9734
   7   0.0000       0.037032         1.0077
   8   0.0000       0.060804         1.6546

MULLIKEN ATOMIC CHARGES AND SPIN POPULATIONS
--------------------------------------------
   0 C :   -0.429231    1.099059
   1 H :    0.143423   -0.032853
   2 H :    0.142196   -0.035540
   3 H :    0.143612   -0.030666
Sum of atomic charges         :   -0.0000000

LOEWDIN ATOMIC CHARGES AND SPIN POPULATIONS
-------------------------------------------
   0 C :   -0.126865    0.896546
   1 H :    0.043269    0.034420
   2 H :    0.066326    0.026489
   3 H :    0.017269    0.042545

  Mayer bond orders larger than 0.100000
B(  0-C ,  1-H ) :   0.9809 B(  0-C ,  2-H ) :   0.9798 B(  0-C ,  3-H ) :   0.9806

FINAL SINGLE POINT ENERGY       -39.823856726424

DIPOLE MOMENT
-------------
                                X             Y             Z
Electronic contribution:     -0.00713      -0.01770       0.02694
Nuclear contribution   :     -0.01042       0.01938      -0.04511
                        -----------------------------------------
Total Dipole Moment    :     -0.01754       0.00168      -0.01817
                        -----------------------------------------
Magnitude (a.u.)       :      0.02531
Magnitude (Debye)      :      0.06433

Rotational constants in cm-1:    11.161236     9.000046     4.985391
Rotational constants in MHz : 334605.434225 269814.606213 149458.260079

                             ****ORCA TERMINATED NORMALLY****
TOTAL RUN TIME: 0 days 0 hours 0 minutes 20 seconds 784 msec
