                         Program Version 5.0.3 -  RELEASE  -
|  1> !B3LYP EPR-III Autoaux
|  2> !PAL4
|  3>
|  4> * xyz 0 2
|  5>  C    -31.9091128299    -50.9404831213    -18.6028911491
|  6>  H    -32.8269366760    -50.3903052030    -18.7082481302
|  7>  H    -31.7759492911    -52.0421848756    -18.6480965880
|  8>  H    -30.9458503516    -50.4679951947    -18.4132237771
|  9> *
| 10>
| 11> %EPRNMR
| 12>         GTENSOR   TRUE
| 13>         NUCLEI    = ALL H {AISO, ADIP, AORB}
| 14>         NUCLEI    = ALL C {AISO, ADIP, AORB}
| 15> END
| 16>
| 17>
| 18>                          ****END OF INPUT****

CARTESIAN COORDINATES (ANGSTROEM)
---------------------------------
  C    -31.909113  -50.940483  -18.602891
  H    -32.826937  -50.390305  -18.708248
  H    -31.775949  -52.042185  -18.648097
  H    -30.945850  -50.467995  -18.413224

 Total Charge           Charge          ....    0
 Multiplicity           Mult            ....    2
 Number of Electrons    NEL             ....    9
 Basis Dimension        Dim             ....   73

ORBITAL ENERGIES
----------------
                 SPIN UP ORBITALS
  NO   OCC          E(Eh)            E(eV)
   0   1.0000     -10.187822      -277.2247
   1   1.0000      -0.684866       -18.6362
   2   1.0000      -0.437199       -11.8968
   3   1.0000      -0.402722       -10.9586
   4   1.0000      -0.234862        -6.3909
   5   0.0000       0.000547         0.0149
   6   0.0000       0.034791         0.9467
   7   0.0000       0.038513         1.0480
   8   0.0000       0.047422         1.2904
   9   0.0000       0.084576         2.3014

                 SPIN DOWN ORBITALS
  NO   OCC          E(Eh)            E(eV)
   0   1.0000     -10.173320      -276.8301
   1   1.0000      -0.645318       -17.5600
   2   1.0000      -0.428010       -11.6467
   3   1.0000      -0.393190       -10.6993
   4   0.0000      -0.077292        -2.1032
   5   0.0000       0.003797         0.1033
   6   0.0000       0.034467         0.9379
   7   0.0000       0.038117         1.0372
   8   0.0000       0.060708         1.6519

MULLIKEN ATOMIC CHARGES AND SPIN POPULATIONS
--------------------------------------------
   0 C :   -0.429405    1.106205
   1 H :    0.151926   -0.032939
   2 H :    0.139736   -0.037329
   3 H :    0.137743   -0.035937
Sum of atomic charges         :    0.0000000

LOEWDIN ATOMIC CHARGES AND SPIN POPULATIONS
-------------------------------------------
   0 C :   -0.160894    0.912769
   1 H :    0.047310    0.031531
   2 H :    0.062131    0.026050
   3 H :    0.051453    0.029650

  Mayer bond orders larger than 0.100000
B(  0-C ,  1-H ) :   0.9746 B(  0-C ,  2-H ) :   0.9767 B(  0-C ,  3-H ) :   0.9771

FINAL SINGLE POINT ENERGY       -39.825764985879

DIPOLE MOMENT
-------------
                                X             Y             Z
Electronic contribution:     -0.12082       0.05910      -0.02279
Nuclear contribution   :      0.13386      -0.05924       0.02931
                        -----------------------------------------
Total Dipole Moment    :      0.01304      -0.00014       0.00652
                        -----------------------------------------
Magnitude (a.u.)       :      0.01458
Magnitude (Debye)      :      0.03706

Rotational constants in cm-1:    10.439489     8.479641     4.679194
Rotational constants in MHz : 312967.999839 254213.231135 140278.707033

                             ****ORCA TERMINATED NORMALLY****
TOTAL RUN TIME: 0 days 0 hours 0 minutes 27 seconds 974 msec
