                         Program Version 5.0.3 -  RELEASE  -
|  1> !B3LYP EPR-III Autoaux
|  2> !PAL4
|  3>
|  4> * xyz 0 2
|  5>  C     -0.8051268381    -15.8218937347    -10.6039406427
|  6>  H     -1.3899511049    -15.1389007040    -11.1279225494
|  7>  H     -1.3671111864    -16.4956904669     -9.8931292665
|  8>  H      0.2223926539    -16.0698999403    -10.8008106207
|  9> *
| 10>
| 11> %EPRNMR
| 12>         GTENSOR   TRUE
| 13>         NUCLEI    = ALL H {AISO, ADIP, AORB}
| 14>         NUCLEI    = ALL C {AISO, ADIP, AORB}
| 15> END
| 16>
| 17>
| 18>                          ****END OF INPUT****

CARTESIAN COORDINATES (ANGSTROEM)
---------------------------------
  C     -0.805127  -15.821894  -10.603941
  H     -1.389951  -15.138901  -11.127923
  H     -1.367111  -16.495690   -9.893129
  H      0.222393  -16.069900  -10.800811

 Total Charge           Charge          ....    0
 Multiplicity           Mult            ....    2
 Number of Electrons    NEL             ....    9
 Basis Dimension        Dim             ....   73

ORBITAL ENERGIES
----------------
                 SPIN UP ORBITALS
  NO   OCC          E(Eh)            E(eV)
   0   1.0000     -10.184808      -277.1427
   1   1.0000      -0.688044       -18.7226
   2   1.0000      -0.437792       -11.9129
   3   1.0000      -0.406645       -11.0654
   4   1.0000      -0.235930        -6.4200
   5   0.0000       0.000872         0.0237
   6   0.0000       0.035515         0.9664
   7   0.0000       0.038067         1.0359
   8   0.0000       0.047445         1.2910
   9   0.0000       0.087111         2.3704

                 SPIN DOWN ORBITALS
  NO   OCC          E(Eh)            E(eV)
   0   1.0000     -10.170338      -276.7490
   1   1.0000      -0.648734       -17.6530
   2   1.0000      -0.428144       -11.6504
   3   1.0000      -0.397266       -10.8102
   4   0.0000      -0.077973        -2.1218
   5   0.0000       0.003977         0.1082
   6   0.0000       0.035150         0.9565
   7   0.0000       0.037701         1.0259
   8   0.0000       0.060657         1.6506

MULLIKEN ATOMIC CHARGES AND SPIN POPULATIONS
--------------------------------------------
   0 C :   -0.425747    1.101495
   1 H :    0.147958   -0.031141
   2 H :    0.131594   -0.037304
   3 H :    0.146196   -0.033050
Sum of atomic charges         :    0.0000000

LOEWDIN ATOMIC CHARGES AND SPIN POPULATIONS
-------------------------------------------
   0 C :   -0.148789    0.907529
   1 H :    0.029947    0.037521
   2 H :    0.070517    0.023353
   3 H :    0.048326    0.031597

  Mayer bond orders larger than 0.100000
B(  0-C ,  1-H ) :   0.9772 B(  0-C ,  2-H ) :   0.9788 B(  0-C ,  3-H ) :   0.9769

FINAL SINGLE POINT ENERGY       -39.825438531234

DIPOLE MOMENT
-------------
                                X             Y             Z
Electronic contribution:      0.07436       0.14525      -0.03194
Nuclear contribution   :     -0.08940      -0.17898      -0.00753
                        -----------------------------------------
Total Dipole Moment    :     -0.01504      -0.03373      -0.03947
                        -----------------------------------------
Magnitude (a.u.)       :      0.05405
Magnitude (Debye)      :      0.13739

Rotational constants in cm-1:     9.838629     9.192220     4.778703
Rotational constants in MHz : 294954.666637 275575.824075 143261.910863

                             ****ORCA TERMINATED NORMALLY****
TOTAL RUN TIME: 0 days 0 hours 0 minutes 22 seconds 67 msec
