                         Program Version 5.0.3 -  RELEASE  -
|  1> !B3LYP EPR-III Autoaux
|  2> !PAL4
|  3>
|  4> * xyz 0 2
|  5>  C    -34.1510812309    -53.4655918039    -19.1580521423
|  6>  H    -34.0047081995    -54.5144492917    -19.1421165278
|  7>  H    -33.2109099346    -52.9381981846    -19.3096957865
|  8>  H    -35.1157635641    -52.9874085623    -19.1177889734
|  9> *
| 10>
| 11> %EPRNMR
| 12>         GTENSOR   TRUE
| 13>         NUCLEI    = ALL H {AISO, ADIP, AORB}
| 14>         NUCLEI    = ALL C {AISO, ADIP, AORB}
| 15> END
| 16>
| 17>
| 18>                          ****END OF INPUT****

CARTESIAN COORDINATES (ANGSTROEM)
---------------------------------
  C    -34.151081  -53.465592  -19.158052
  H    -34.004708  -54.514449  -19.142117
  H    -33.210910  -52.938198  -19.309696
  H    -35.115764  -52.987409  -19.117789

 Total Charge           Charge          ....    0
 Multiplicity           Mult            ....    2
 Number of Electrons    NEL             ....    9
 Basis Dimension        Dim             ....   73

ORBITAL ENERGIES
----------------
                 SPIN UP ORBITALS
  NO   OCC          E(Eh)            E(eV)
   0   1.0000     -10.182952      -277.0922
   1   1.0000      -0.689429       -18.7603
   2   1.0000      -0.436187       -11.8693
   3   1.0000      -0.411191       -11.1891
   4   1.0000      -0.234974        -6.3940
   5   0.0000       0.001058         0.0288
   6   0.0000       0.035346         0.9618
   7   0.0000       0.038105         1.0369
   8   0.0000       0.047406         1.2900
   9   0.0000       0.088946         2.4204

                 SPIN DOWN ORBITALS
  NO   OCC          E(Eh)            E(eV)
   0   1.0000     -10.168587      -276.7013
   1   1.0000      -0.650172       -17.6921
   2   1.0000      -0.426832       -11.6147
   3   1.0000      -0.401489       -10.9251
   4   0.0000      -0.077629        -2.1124
   5   0.0000       0.004138         0.1126
   6   0.0000       0.034962         0.9514
   7   0.0000       0.037653         1.0246
   8   0.0000       0.060637         1.6500

MULLIKEN ATOMIC CHARGES AND SPIN POPULATIONS
--------------------------------------------
   0 C :   -0.428839    1.101778
   1 H :    0.141356   -0.033513
   2 H :    0.138430   -0.035281
   3 H :    0.149053   -0.032984
Sum of atomic charges         :   -0.0000000

LOEWDIN ATOMIC CHARGES AND SPIN POPULATIONS
-------------------------------------------
   0 C :   -0.145971    0.905019
   1 H :    0.040092    0.034437
   2 H :    0.054715    0.029556
   3 H :    0.051165    0.030988

  Mayer bond orders larger than 0.100000
B(  0-C ,  1-H ) :   0.9788 B(  0-C ,  2-H ) :   0.9790 B(  0-C ,  3-H ) :   0.9770

FINAL SINGLE POINT ENERGY       -39.826907255860

DIPOLE MOMENT
-------------
                                X             Y             Z
Electronic contribution:     -0.08521       0.02246       0.04709
Nuclear contribution   :      0.09133      -0.03244      -0.07153
                        -----------------------------------------
Total Dipole Moment    :      0.00612      -0.00997      -0.02445
                        -----------------------------------------
Magnitude (a.u.)       :      0.02710
Magnitude (Debye)      :      0.06889

Rotational constants in cm-1:    10.647442     8.814831     4.827799
Rotational constants in MHz : 319202.288193 264261.993084 144733.779638

                             ****ORCA TERMINATED NORMALLY****
TOTAL RUN TIME: 0 days 0 hours 0 minutes 21 seconds 582 msec
