                         Program Version 5.0.3 -  RELEASE  -
|  1> !B3LYP EPR-III Autoaux
|  2> !PAL4
|  3>
|  4> * xyz 0 2
|  5>  C    -72.9641164316    -97.8044953377    -28.6875453388
|  6>  H    -72.7088548129    -96.7326659136    -28.5915542980
|  7>  H    -74.0073303974    -98.0413449543    -28.7491466313
|  8>  H    -72.2645714595    -98.6774879248    -28.7383146654
|  9> *
| 10>
| 11> %EPRNMR
| 12>         GTENSOR   TRUE
| 13>         NUCLEI    = ALL H {AISO, ADIP, AORB}
| 14>         NUCLEI    = ALL C {AISO, ADIP, AORB}
| 15> END
| 16>
| 17>
| 18>                          ****END OF INPUT****

CARTESIAN COORDINATES (ANGSTROEM)
---------------------------------
  C    -72.964116  -97.804495  -28.687545
  H    -72.708855  -96.732666  -28.591554
  H    -74.007330  -98.041345  -28.749147
  H    -72.264571  -98.677488  -28.738315

 Total Charge           Charge          ....    0
 Multiplicity           Mult            ....    2
 Number of Electrons    NEL             ....    9
 Basis Dimension        Dim             ....   73

ORBITAL ENERGIES
----------------
                 SPIN UP ORBITALS
  NO   OCC          E(Eh)            E(eV)
   0   1.0000     -10.189741      -277.2769
   1   1.0000      -0.682926       -18.5834
   2   1.0000      -0.425696       -11.5838
   3   1.0000      -0.411025       -11.1846
   4   1.0000      -0.234711        -6.3868
   5   0.0000       0.000211         0.0057
   6   0.0000       0.035478         0.9654
   7   0.0000       0.037862         1.0303
   8   0.0000       0.047403         1.2899
   9   0.0000       0.081498         2.2177

                 SPIN DOWN ORBITALS
  NO   OCC          E(Eh)            E(eV)
   0   1.0000     -10.175200      -276.8813
   1   1.0000      -0.643320       -17.5056
   2   1.0000      -0.416776       -11.3410
   3   1.0000      -0.401345       -10.9212
   4   0.0000      -0.077084        -2.0976
   5   0.0000       0.003559         0.0968
   6   0.0000       0.035173         0.9571
   7   0.0000       0.037478         1.0198
   8   0.0000       0.060721         1.6523

MULLIKEN ATOMIC CHARGES AND SPIN POPULATIONS
--------------------------------------------
   0 C :   -0.428628    1.107287
   1 H :    0.145834   -0.035919
   2 H :    0.138320   -0.034394
   3 H :    0.144474   -0.036975
Sum of atomic charges         :    0.0000000

LOEWDIN ATOMIC CHARGES AND SPIN POPULATIONS
-------------------------------------------
   0 C :   -0.166937    0.915858
   1 H :    0.059981    0.026747
   2 H :    0.040880    0.032869
   3 H :    0.066077    0.024526

  Mayer bond orders larger than 0.100000
B(  0-C ,  1-H ) :   0.9741 B(  0-C ,  2-H ) :   0.9759 B(  0-C ,  3-H ) :   0.9741

FINAL SINGLE POINT ENERGY       -39.825957304366

DIPOLE MOMENT
-------------
                                X             Y             Z
Electronic contribution:      0.04834       0.02534       0.00857
Nuclear contribution   :     -0.06626      -0.02849      -0.01228
                        -----------------------------------------
Total Dipole Moment    :     -0.01792      -0.00315      -0.00371
                        -----------------------------------------
Magnitude (a.u.)       :      0.01857
Magnitude (Debye)      :      0.04721

Rotational constants in cm-1:    10.297865     8.358538     4.613769
Rotational constants in MHz : 308722.215042 250582.654646 138317.306447

                             ****ORCA TERMINATED NORMALLY****
TOTAL RUN TIME: 0 days 0 hours 0 minutes 20 seconds 71 msec
