                         Program Version 5.0.3 -  RELEASE  -
|  1> !B3LYP EPR-III Autoaux
|  2> !PAL4
|  3>
|  4> * xyz 0 2
|  5>  C    -85.4411522418   -113.0952904487    -31.6773980121
|  6>  H    -84.5728750039   -113.6828478995    -31.7005202936
|  7>  H    -85.3688938693   -112.0666096164    -31.5890102935
|  8>  H    -86.4700333347   -113.4430602797    -31.7534885729
|  9> *
| 10>
| 11> %EPRNMR
| 12>         GTENSOR   TRUE
| 13>         NUCLEI    = ALL H {AISO, ADIP, AORB}
| 14>         NUCLEI    = ALL C {AISO, ADIP, AORB}
| 15> END
| 16>
| 17>
| 18>                          ****END OF INPUT****

CARTESIAN COORDINATES (ANGSTROEM)
---------------------------------
  C    -85.441152  -113.095290  -31.677398
  H    -84.572875  -113.682848  -31.700520
  H    -85.368894  -112.066610  -31.589010
  H    -86.470033  -113.443060  -31.753489

 Total Charge           Charge          ....    0
 Multiplicity           Mult            ....    2
 Number of Electrons    NEL             ....    9
 Basis Dimension        Dim             ....   73

ORBITAL ENERGIES
----------------
                 SPIN UP ORBITALS
  NO   OCC          E(Eh)            E(eV)
   0   1.0000     -10.177099      -276.9329
   1   1.0000      -0.694322       -18.8935
   2   1.0000      -0.439081       -11.9480
   3   1.0000      -0.416001       -11.3200
   4   1.0000      -0.234646        -6.3850
   5   0.0000       0.001606         0.0437
   6   0.0000       0.035520         0.9666
   7   0.0000       0.038067         1.0359
   8   0.0000       0.047605         1.2954
   9   0.0000       0.088649         2.4123

                 SPIN DOWN ORBITALS
  NO   OCC          E(Eh)            E(eV)
   0   1.0000     -10.162797      -276.5438
   1   1.0000      -0.655155       -17.8277
   2   1.0000      -0.429521       -11.6879
   3   1.0000      -0.406109       -11.0508
   4   0.0000      -0.077526        -2.1096
   5   0.0000       0.004554         0.1239
   6   0.0000       0.035125         0.9558
   7   0.0000       0.037615         1.0235
   8   0.0000       0.060802         1.6545

MULLIKEN ATOMIC CHARGES AND SPIN POPULATIONS
--------------------------------------------
   0 C :   -0.429130    1.099375
   1 H :    0.148395   -0.031695
   2 H :    0.140060   -0.032311
   3 H :    0.140674   -0.035370
Sum of atomic charges         :    0.0000000

LOEWDIN ATOMIC CHARGES AND SPIN POPULATIONS
-------------------------------------------
   0 C :   -0.128973    0.897126
   1 H :    0.039634    0.035529
   2 H :    0.030414    0.038344
   3 H :    0.058925    0.029001

  Mayer bond orders larger than 0.100000
B(  0-C ,  1-H ) :   0.9802 B(  0-C ,  2-H ) :   0.9810 B(  0-C ,  3-H ) :   0.9807

FINAL SINGLE POINT ENERGY       -39.825422850851

DIPOLE MOMENT
-------------
                                X             Y             Z
Electronic contribution:      0.06582      -0.05230       0.00510
Nuclear contribution   :     -0.06621       0.06997      -0.00811
                        -----------------------------------------
Total Dipole Moment    :     -0.00040       0.01767      -0.00301
                        -----------------------------------------
Magnitude (a.u.)       :      0.01793
Magnitude (Debye)      :      0.04557

Rotational constants in cm-1:    11.015931     9.103852     4.984708
Rotational constants in MHz : 330249.298755 272926.604384 149437.775980

                             ****ORCA TERMINATED NORMALLY****
TOTAL RUN TIME: 0 days 0 hours 0 minutes 20 seconds 697 msec
