                         Program Version 5.0.3 -  RELEASE  -
|  1> !B3LYP EPR-III Autoaux
|  2> !PAL4
|  3>
|  4> * xyz 0 2
|  5>  C    -29.3570870510    -48.0740100429    -17.9632084059
|  6>  H    -28.2692915501    -47.8374044578    -17.8022181370
|  7>  H    -29.9057074950    -47.2460101106    -17.7405032131
|  8>  H    -29.6978500367    -49.0589591777    -18.2529776284
|  9> *
| 10>
| 11> %EPRNMR
| 12>         GTENSOR   TRUE
| 13>         NUCLEI    = ALL H {AISO, ADIP, AORB}
| 14>         NUCLEI    = ALL C {AISO, ADIP, AORB}
| 15> END
| 16>
| 17>
| 18>                          ****END OF INPUT****

CARTESIAN COORDINATES (ANGSTROEM)
---------------------------------
  C    -29.357087  -48.074010  -17.963208
  H    -28.269292  -47.837404  -17.802218
  H    -29.905707  -47.246010  -17.740503
  H    -29.697850  -49.058959  -18.252978

 Total Charge           Charge          ....    0
 Multiplicity           Mult            ....    2
 Number of Electrons    NEL             ....    9
 Basis Dimension        Dim             ....   73

ORBITAL ENERGIES
----------------
                 SPIN UP ORBITALS
  NO   OCC          E(Eh)            E(eV)
   0   1.0000     -10.182571      -277.0818
   1   1.0000      -0.690802       -18.7977
   2   1.0000      -0.443922       -12.0797
   3   1.0000      -0.403017       -10.9667
   4   1.0000      -0.235077        -6.3968
   5   0.0000       0.000959         0.0261
   6   0.0000       0.034721         0.9448
   7   0.0000       0.038612         1.0507
   8   0.0000       0.047486         1.2921
   9   0.0000       0.086861         2.3636

                 SPIN DOWN ORBITALS
  NO   OCC          E(Eh)            E(eV)
   0   1.0000     -10.168154      -276.6895
   1   1.0000      -0.651506       -17.7284
   2   1.0000      -0.434349       -11.8192
   3   1.0000      -0.393418       -10.7054
   4   0.0000      -0.077602        -2.1117
   5   0.0000       0.004059         0.1104
   6   0.0000       0.034382         0.9356
   7   0.0000       0.038200         1.0395
   8   0.0000       0.060708         1.6519

MULLIKEN ATOMIC CHARGES AND SPIN POPULATIONS
--------------------------------------------
   0 C :   -0.430210    1.103308
   1 H :    0.130661   -0.038221
   2 H :    0.148174   -0.031717
   3 H :    0.151376   -0.033370
Sum of atomic charges         :   -0.0000000

LOEWDIN ATOMIC CHARGES AND SPIN POPULATIONS
-------------------------------------------
   0 C :   -0.142699    0.904640
   1 H :    0.070353    0.023864
   2 H :    0.018099    0.041457
   3 H :    0.054247    0.030039

  Mayer bond orders larger than 0.100000
B(  0-C ,  1-H ) :   0.9804 B(  0-C ,  2-H ) :   0.9787 B(  0-C ,  3-H ) :   0.9768

FINAL SINGLE POINT ENERGY       -39.821916118886

DIPOLE MOMENT
-------------
                                X             Y             Z
Electronic contribution:     -0.15248      -0.05043      -0.05150
Nuclear contribution   :      0.14871       0.05970       0.07040
                        -----------------------------------------
Total Dipole Moment    :     -0.00378       0.00927       0.01889
                        -----------------------------------------
Magnitude (a.u.)       :      0.02138
Magnitude (Debye)      :      0.05435

Rotational constants in cm-1:    11.021495     8.570467     4.823561
Rotational constants in MHz : 330416.116663 256936.150737 144606.706443

                             ****ORCA TERMINATED NORMALLY****
TOTAL RUN TIME: 0 days 0 hours 0 minutes 23 seconds 455 msec
