                         Program Version 5.0.3 -  RELEASE  -
|  1> !B3LYP EPR-III Autoaux
|  2> !PAL4
|  3>
|  4> * xyz 0 2
|  5>  C    -71.4954865200    -95.9868078298    -28.3340418442
|  6>  H    -70.3979694495    -96.0191316099    -28.3472846567
|  7>  H    -71.8772940069    -94.9778366619    -28.2626132814
|  8>  H    -71.9176485703    -97.0397539624    -28.4551774384
|  9> *
| 10>
| 11> %EPRNMR
| 12>         GTENSOR   TRUE
| 13>         NUCLEI    = ALL H {AISO, ADIP, AORB}
| 14>         NUCLEI    = ALL C {AISO, ADIP, AORB}
| 15> END
| 16>
| 17>
| 18>                          ****END OF INPUT****

CARTESIAN COORDINATES (ANGSTROEM)
---------------------------------
  C    -71.495487  -95.986808  -28.334042
  H    -70.397969  -96.019132  -28.347285
  H    -71.877294  -94.977837  -28.262613
  H    -71.917649  -97.039754  -28.455177

 Total Charge           Charge          ....    0
 Multiplicity           Mult            ....    2
 Number of Electrons    NEL             ....    9
 Basis Dimension        Dim             ....   73

ORBITAL ENERGIES
----------------
                 SPIN UP ORBITALS
  NO   OCC          E(Eh)            E(eV)
   0   1.0000     -10.192186      -277.3435
   1   1.0000      -0.682167       -18.5627
   2   1.0000      -0.437561       -11.9066
   3   1.0000      -0.393864       -10.7176
   4   1.0000      -0.235129        -6.3982
   5   0.0000      -0.000425        -0.0116
   6   0.0000       0.033606         0.9145
   7   0.0000       0.039263         1.0684
   8   0.0000       0.047320         1.2876
   9   0.0000       0.072779         1.9804

                 SPIN DOWN ORBITALS
  NO   OCC          E(Eh)            E(eV)
   0   1.0000     -10.177577      -276.9459
   1   1.0000      -0.642622       -17.4866
   2   1.0000      -0.428774       -11.6675
   3   1.0000      -0.384038       -10.4502
   4   0.0000      -0.077278        -2.1028
   5   0.0000       0.003041         0.0828
   6   0.0000       0.033365         0.9079
   7   0.0000       0.038878         1.0579
   8   0.0000       0.060633         1.6499

MULLIKEN ATOMIC CHARGES AND SPIN POPULATIONS
--------------------------------------------
   0 C :   -0.434886    1.110922
   1 H :    0.128998   -0.036684
   2 H :    0.154573   -0.034696
   3 H :    0.151315   -0.039542
Sum of atomic charges         :    0.0000000

LOEWDIN ATOMIC CHARGES AND SPIN POPULATIONS
-------------------------------------------
   0 C :   -0.176300    0.919671
   1 H :    0.050926    0.028848
   2 H :    0.048952    0.030631
   3 H :    0.076422    0.020850

  Mayer bond orders larger than 0.100000
B(  0-C ,  1-H ) :   0.9769 B(  0-C ,  2-H ) :   0.9734 B(  0-C ,  3-H ) :   0.9722

FINAL SINGLE POINT ENERGY       -39.820211184332

DIPOLE MOMENT
-------------
                                X             Y             Z
Electronic contribution:     -0.18602       0.05776       0.03118
Nuclear contribution   :      0.22001      -0.05718      -0.04718
                        -----------------------------------------
Total Dipole Moment    :      0.03399       0.00058      -0.01600
                        -----------------------------------------
Magnitude (a.u.)       :      0.03757
Magnitude (Debye)      :      0.09550

Rotational constants in cm-1:    10.983799     7.785371     4.558225
Rotational constants in MHz : 329285.999294 233399.543579 136652.149920

                             ****ORCA TERMINATED NORMALLY****
TOTAL RUN TIME: 0 days 0 hours 0 minutes 36 seconds 7 msec
