                         Program Version 5.0.3 -  RELEASE  -
|  1> !B3LYP EPR-III Autoaux
|  2> !PAL4
|  3>
|  4> * xyz 0 2
|  5>  C    -69.7778392031    -93.9259430574    -27.9450228327
|  6>  H    -69.7347072189    -94.9840404865    -28.0405902563
|  7>  H    -68.8837977774    -93.2851326911    -27.8587165696
|  8>  H    -70.7393541143    -93.5477993711    -27.9495266826
|  9> *
| 10>
| 11> %EPRNMR
| 12>         GTENSOR   TRUE
| 13>         NUCLEI    = ALL H {AISO, ADIP, AORB}
| 14>         NUCLEI    = ALL C {AISO, ADIP, AORB}
| 15> END
| 16>
| 17>
| 18>                          ****END OF INPUT****

CARTESIAN COORDINATES (ANGSTROEM)
---------------------------------
  C    -69.777839  -93.925943  -27.945023
  H    -69.734707  -94.984040  -28.040590
  H    -68.883798  -93.285133  -27.858717
  H    -70.739354  -93.547799  -27.949527

 Total Charge           Charge          ....    0
 Multiplicity           Mult            ....    2
 Number of Electrons    NEL             ....    9
 Basis Dimension        Dim             ....   73

ORBITAL ENERGIES
----------------
                 SPIN UP ORBITALS
  NO   OCC          E(Eh)            E(eV)
   0   1.0000     -10.179804      -277.0065
   1   1.0000      -0.691994       -18.8301
   2   1.0000      -0.430288       -11.7087
   3   1.0000      -0.420606       -11.4453
   4   1.0000      -0.234596        -6.3837
   5   0.0000       0.001344         0.0366
   6   0.0000       0.035974         0.9789
   7   0.0000       0.037593         1.0230
   8   0.0000       0.047568         1.2944
   9   0.0000       0.088128         2.3981

                 SPIN DOWN ORBITALS
  NO   OCC          E(Eh)            E(eV)
   0   1.0000     -10.165452      -276.6160
   1   1.0000      -0.652762       -17.7626
   2   1.0000      -0.420903       -11.4534
   3   1.0000      -0.410695       -11.1756
   4   0.0000      -0.077380        -2.1056
   5   0.0000       0.004373         0.1190
   6   0.0000       0.035613         0.9691
   7   0.0000       0.037147         1.0108
   8   0.0000       0.060794         1.6543

MULLIKEN ATOMIC CHARGES AND SPIN POPULATIONS
--------------------------------------------
   0 C :   -0.428655    1.100964
   1 H :    0.140636   -0.033734
   2 H :    0.144707   -0.035298
   3 H :    0.143312   -0.031932
Sum of atomic charges         :   -0.0000000

LOEWDIN ATOMIC CHARGES AND SPIN POPULATIONS
-------------------------------------------
   0 C :   -0.136870    0.901131
   1 H :    0.044246    0.033524
   2 H :    0.064605    0.026601
   3 H :    0.028019    0.038744

  Mayer bond orders larger than 0.100000
B(  0-C ,  1-H ) :   0.9800 B(  0-C ,  2-H ) :   0.9780 B(  0-C ,  3-H ) :   0.9797

FINAL SINGLE POINT ENERGY       -39.825850480369

DIPOLE MOMENT
-------------
                                X             Y             Z
Electronic contribution:      0.00553       0.02551       0.00684
Nuclear contribution   :     -0.01824      -0.02934      -0.01032
                        -----------------------------------------
Total Dipole Moment    :     -0.01271      -0.00383      -0.00348
                        -----------------------------------------
Magnitude (a.u.)       :      0.01372
Magnitude (Debye)      :      0.03488

Rotational constants in cm-1:    10.884121     8.901275     4.896737
Rotational constants in MHz : 326297.747854 266853.512902 146800.479161

                             ****ORCA TERMINATED NORMALLY****
TOTAL RUN TIME: 0 days 0 hours 0 minutes 36 seconds 89 msec
