                         Program Version 5.0.3 -  RELEASE  -
|  1> !B3LYP EPR-III Autoaux
|  2> !PAL4
|  3>
|  4> * xyz 0 2
|  5>  C    -64.2615067926    -87.3100200413    -26.6851275902
|  6>  H    -63.1716498296    -87.2088525438    -26.6765866573
|  7>  H    -64.7254459819    -86.2480204888    -26.5516178333
|  8>  H    -64.6316284701    -88.3095943968    -26.7596980339
|  9> *
| 10>
| 11> %EPRNMR
| 12>         GTENSOR   TRUE
| 13>         NUCLEI    = ALL H {AISO, ADIP, AORB}
| 14>         NUCLEI    = ALL C {AISO, ADIP, AORB}
| 15> END
| 16>
| 17>
| 18>                          ****END OF INPUT****

CARTESIAN COORDINATES (ANGSTROEM)
---------------------------------
  C    -64.261507  -87.310020  -26.685128
  H    -63.171650  -87.208853  -26.676587
  H    -64.725446  -86.248020  -26.551618
  H    -64.631628  -88.309594  -26.759698

 Total Charge           Charge          ....    0
 Multiplicity           Mult            ....    2
 Number of Electrons    NEL             ....    9
 Basis Dimension        Dim             ....   73

ORBITAL ENERGIES
----------------
                 SPIN UP ORBITALS
  NO   OCC          E(Eh)            E(eV)
   0   1.0000     -10.193021      -277.3662
   1   1.0000      -0.681755       -18.5515
   2   1.0000      -0.437818       -11.9136
   3   1.0000      -0.392673       -10.6852
   4   1.0000      -0.235221        -6.4007
   5   0.0000      -0.000658        -0.0179
   6   0.0000       0.033545         0.9128
   7   0.0000       0.039236         1.0677
   8   0.0000       0.047293         1.2869
   9   0.0000       0.071911         1.9568

                 SPIN DOWN ORBITALS
  NO   OCC          E(Eh)            E(eV)
   0   1.0000     -10.178386      -276.9680
   1   1.0000      -0.642137       -17.4734
   2   1.0000      -0.428935       -11.6719
   3   1.0000      -0.383018       -10.4224
   4   0.0000      -0.077277        -2.1028
   5   0.0000       0.002871         0.0781
   6   0.0000       0.033329         0.9069
   7   0.0000       0.038879         1.0580
   8   0.0000       0.060613         1.6494

MULLIKEN ATOMIC CHARGES AND SPIN POPULATIONS
--------------------------------------------
   0 C :   -0.434447    1.111411
   1 H :    0.131351   -0.036518
   2 H :    0.147403   -0.041767
   3 H :    0.155694   -0.033126
Sum of atomic charges         :   -0.0000000

LOEWDIN ATOMIC CHARGES AND SPIN POPULATIONS
-------------------------------------------
   0 C :   -0.176677    0.920769
   1 H :    0.049122    0.029367
   2 H :    0.085598    0.016984
   3 H :    0.041957    0.032879

  Mayer bond orders larger than 0.100000
B(  0-C ,  1-H ) :   0.9761 B(  0-C ,  2-H ) :   0.9721 B(  0-C ,  3-H ) :   0.9730

FINAL SINGLE POINT ENERGY       -39.818728896721

DIPOLE MOMENT
-------------
                                X             Y             Z
Electronic contribution:     -0.15731      -0.12177      -0.03553
Nuclear contribution   :      0.19171       0.12261       0.05058
                        -----------------------------------------
Total Dipole Moment    :      0.03440       0.00084       0.01504
                        -----------------------------------------
Magnitude (a.u.)       :      0.03756
Magnitude (Debye)      :      0.09546

Rotational constants in cm-1:    10.885658     7.747164     4.528029
Rotational constants in MHz : 326343.810039 232254.134716 135746.890486

                             ****ORCA TERMINATED NORMALLY****
TOTAL RUN TIME: 0 days 0 hours 0 minutes 22 seconds 371 msec
