                         Program Version 5.0.3 -  RELEASE  -
|  1> !B3LYP EPR-III Autoaux
|  2> !PAL4
|  3>
|  4> * xyz 0 2
|  5>  C    -93.8296503744   -123.6100792955    -33.4339564335
|  6>  H    -92.7503075748   -123.6452318613    -33.3925137885
|  7>  H    -94.3018715646   -122.6699829094    -33.3920328315
|  8>  H    -94.1834354600   -124.5547469621    -33.5214216070
|  9> *
| 10>
| 11> %EPRNMR
| 12>         GTENSOR   TRUE
| 13>         NUCLEI    = ALL H {AISO, ADIP, AORB}
| 14>         NUCLEI    = ALL C {AISO, ADIP, AORB}
| 15> END
| 16>
| 17>
| 18>                          ****END OF INPUT****

CARTESIAN COORDINATES (ANGSTROEM)
---------------------------------
  C    -93.829650  -123.610079  -33.433956
  H    -92.750308  -123.645232  -33.392514
  H    -94.301872  -122.669983  -33.392033
  H    -94.183435  -124.554747  -33.521422

 Total Charge           Charge          ....    0
 Multiplicity           Mult            ....    2
 Number of Electrons    NEL             ....    9
 Basis Dimension        Dim             ....   73

ORBITAL ENERGIES
----------------
                 SPIN UP ORBITALS
  NO   OCC          E(Eh)            E(eV)
   0   1.0000     -10.174670      -276.8668
   1   1.0000      -0.697570       -18.9818
   2   1.0000      -0.451996       -12.2994
   3   1.0000      -0.406333       -11.0569
   4   1.0000      -0.234935        -6.3929
   5   0.0000       0.001754         0.0477
   6   0.0000       0.034520         0.9393
   7   0.0000       0.038902         1.0586
   8   0.0000       0.047614         1.2957
   9   0.0000       0.088916         2.4195

                 SPIN DOWN ORBITALS
  NO   OCC          E(Eh)            E(eV)
   0   1.0000     -10.160404      -276.4786
   1   1.0000      -0.658533       -17.9196
   2   1.0000      -0.442294       -12.0354
   3   1.0000      -0.396340       -10.7849
   4   0.0000      -0.077825        -2.1177
   5   0.0000       0.004628         0.1259
   6   0.0000       0.034138         0.9289
   7   0.0000       0.038426         1.0456
   8   0.0000       0.060764         1.6535

MULLIKEN ATOMIC CHARGES AND SPIN POPULATIONS
--------------------------------------------
   0 C :   -0.431217    1.098835
   1 H :    0.129679   -0.035496
   2 H :    0.151780   -0.031914
   3 H :    0.149759   -0.031424
Sum of atomic charges         :    0.0000000

LOEWDIN ATOMIC CHARGES AND SPIN POPULATIONS
-------------------------------------------
   0 C :   -0.121087    0.893230
   1 H :    0.055255    0.030677
   2 H :    0.044594    0.034362
   3 H :    0.021238    0.041731

  Mayer bond orders larger than 0.100000
B(  0-C ,  1-H ) :   0.9836 B(  0-C ,  2-H ) :   0.9810 B(  0-C ,  3-H ) :   0.9825

FINAL SINGLE POINT ENERGY       -39.821252437240

DIPOLE MOMENT
-------------
                                X             Y             Z
Electronic contribution:     -0.17417       0.02187      -0.00051
Nuclear contribution   :      0.18987      -0.02977      -0.00307
                        -----------------------------------------
Total Dipole Moment    :      0.01570      -0.00790      -0.00358
                        -----------------------------------------
Magnitude (a.u.)       :      0.01793
Magnitude (Debye)      :      0.04558

Rotational constants in cm-1:    11.526690     9.057412     5.072099
Rotational constants in MHz : 345561.481630 271534.380355 152057.687869

                             ****ORCA TERMINATED NORMALLY****
TOTAL RUN TIME: 0 days 0 hours 0 minutes 21 seconds 405 msec
