                         Program Version 5.0.3 -  RELEASE  -
|  1> !B3LYP EPR-III Autoaux
|  2> !PAL4
|  3>
|  4> * xyz 0 2
|  5>  C    -18.6760089371    -36.0450550647    -15.2116366893
|  6>  H    -18.6667850910    -35.0194097083    -15.5641660315
|  7>  H    -19.6796794013    -36.4308224171    -14.9015814886
|  8>  H    -17.7288597679    -36.6307885418    -15.2874766441
|  9> *
| 10>
| 11> %EPRNMR
| 12>         GTENSOR   TRUE
| 13>         NUCLEI    = ALL H {AISO, ADIP, AORB}
| 14>         NUCLEI    = ALL C {AISO, ADIP, AORB}
| 15> END
| 16>
| 17>
| 18>                          ****END OF INPUT****

CARTESIAN COORDINATES (ANGSTROEM)
---------------------------------
  C    -18.676009  -36.045055  -15.211637
  H    -18.666785  -35.019410  -15.564166
  H    -19.679679  -36.430822  -14.901581
  H    -17.728860  -36.630789  -15.287477

 Total Charge           Charge          ....    0
 Multiplicity           Mult            ....    2
 Number of Electrons    NEL             ....    9
 Basis Dimension        Dim             ....   73

ORBITAL ENERGIES
----------------
                 SPIN UP ORBITALS
  NO   OCC          E(Eh)            E(eV)
   0   1.0000     -10.192074      -277.3404
   1   1.0000      -0.680802       -18.5256
   2   1.0000      -0.423692       -11.5292
   3   1.0000      -0.409893       -11.1537
   4   1.0000      -0.235048        -6.3960
   5   0.0000      -0.000057        -0.0015
   6   0.0000       0.035600         0.9687
   7   0.0000       0.037758         1.0274
   8   0.0000       0.047357         1.2887
   9   0.0000       0.081682         2.2227

                 SPIN DOWN ORBITALS
  NO   OCC          E(Eh)            E(eV)
   0   1.0000     -10.177482      -276.9434
   1   1.0000      -0.641131       -17.4460
   2   1.0000      -0.414774       -11.2866
   3   1.0000      -0.400352       -10.8941
   4   0.0000      -0.077198        -2.1007
   5   0.0000       0.003357         0.0913
   6   0.0000       0.035308         0.9608
   7   0.0000       0.037394         1.0175
   8   0.0000       0.060682         1.6512

MULLIKEN ATOMIC CHARGES AND SPIN POPULATIONS
--------------------------------------------
   0 C :   -0.427592    1.107854
   1 H :    0.138309   -0.034930
   2 H :    0.143497   -0.036738
   3 H :    0.145786   -0.036185
Sum of atomic charges         :    0.0000000

LOEWDIN ATOMIC CHARGES AND SPIN POPULATIONS
-------------------------------------------
   0 C :   -0.173402    0.919078
   1 H :    0.046070    0.030786
   2 H :    0.064060    0.024877
   3 H :    0.063272    0.025260

  Mayer bond orders larger than 0.100000
B(  0-C ,  1-H ) :   0.9748 B(  0-C ,  2-H ) :   0.9734 B(  0-C ,  3-H ) :   0.9728

FINAL SINGLE POINT ENERGY       -39.825884434319

DIPOLE MOMENT
-------------
                                X             Y             Z
Electronic contribution:      0.02861      -0.03453       0.05728
Nuclear contribution   :     -0.03545       0.04058      -0.08867
                        -----------------------------------------
Total Dipole Moment    :     -0.00684       0.00605      -0.03140
                        -----------------------------------------
Magnitude (a.u.)       :      0.03270
Magnitude (Debye)      :      0.08312

Rotational constants in cm-1:     9.994519     8.349819     4.556521
Rotational constants in MHz : 299628.131370 250321.287462 136601.060092

                             ****ORCA TERMINATED NORMALLY****
TOTAL RUN TIME: 0 days 0 hours 0 minutes 20 seconds 408 msec
