                         Program Version 5.0.3 -  RELEASE  -
|  1> !B3LYP EPR-III Autoaux
|  2> !PAL4
|  3>
|  4> * xyz 0 2
|  5>  C    -66.3275103778    -89.7678301542    -27.1681431122
|  6>  H    -66.6987308559    -88.7556928361    -27.0718820982
|  7>  H    -67.1351227154    -90.5765463748    -27.2580566234
|  8>  H    -65.3309526779    -90.0716600599    -27.1527631075
|  9> *
| 10>
| 11> %EPRNMR
| 12>         GTENSOR   TRUE
| 13>         NUCLEI    = ALL H {AISO, ADIP, AORB}
| 14>         NUCLEI    = ALL C {AISO, ADIP, AORB}
| 15> END
| 16>
| 17>
| 18>                          ****END OF INPUT****

CARTESIAN COORDINATES (ANGSTROEM)
---------------------------------
  C    -66.327510  -89.767830  -27.168143
  H    -66.698731  -88.755693  -27.071882
  H    -67.135123  -90.576546  -27.258057
  H    -65.330953  -90.071660  -27.152763

 Total Charge           Charge          ....    0
 Multiplicity           Mult            ....    2
 Number of Electrons    NEL             ....    9
 Basis Dimension        Dim             ....   73

ORBITAL ENERGIES
----------------
                 SPIN UP ORBITALS
  NO   OCC          E(Eh)            E(eV)
   0   1.0000     -10.187253      -277.2093
   1   1.0000      -0.685765       -18.6606
   2   1.0000      -0.437890       -11.9156
   3   1.0000      -0.403749       -10.9866
   4   1.0000      -0.235031        -6.3955
   5   0.0000       0.000590         0.0161
   6   0.0000       0.035302         0.9606
   7   0.0000       0.038022         1.0346
   8   0.0000       0.047416         1.2903
   9   0.0000       0.085092         2.3155

                 SPIN DOWN ORBITALS
  NO   OCC          E(Eh)            E(eV)
   0   1.0000     -10.172753      -276.8147
   1   1.0000      -0.646158       -17.5829
   2   1.0000      -0.428340       -11.6557
   3   1.0000      -0.394585       -10.7372
   4   0.0000      -0.077382        -2.1057
   5   0.0000       0.003824         0.1041
   6   0.0000       0.034943         0.9509
   7   0.0000       0.037682         1.0254
   8   0.0000       0.060688         1.6514

MULLIKEN ATOMIC CHARGES AND SPIN POPULATIONS
--------------------------------------------
   0 C :   -0.427288    1.105166
   1 H :    0.145517   -0.034562
   2 H :    0.131535   -0.039109
   3 H :    0.150236   -0.031495
Sum of atomic charges         :    0.0000000

LOEWDIN ATOMIC CHARGES AND SPIN POPULATIONS
-------------------------------------------
   0 C :   -0.155307    0.911409
   1 H :    0.050073    0.030498
   2 H :    0.075958    0.020694
   3 H :    0.029276    0.037399

  Mayer bond orders larger than 0.100000
B(  0-C ,  1-H ) :   0.9759 B(  0-C ,  2-H ) :   0.9775 B(  0-C ,  3-H ) :   0.9758

FINAL SINGLE POINT ENERGY       -39.824657838877

DIPOLE MOMENT
-------------
                                X             Y             Z
Electronic contribution:      0.13775       0.07692      -0.00570
Nuclear contribution   :     -0.13661      -0.07525       0.01628
                        -----------------------------------------
Total Dipole Moment    :      0.00113       0.00166       0.01059
                        -----------------------------------------
Magnitude (a.u.)       :      0.01078
Magnitude (Debye)      :      0.02739

Rotational constants in cm-1:     9.486936     9.259611     4.686891
Rotational constants in MHz : 284411.178799 277596.146865 140509.470032

                             ****ORCA TERMINATED NORMALLY****
TOTAL RUN TIME: 0 days 0 hours 0 minutes 20 seconds 208 msec
