                         Program Version 5.0.3 -  RELEASE  -
|  1> !B3LYP EPR-III Autoaux
|  2> !PAL4
|  3>
|  4> * xyz 0 2
|  5>  C    -12.3185973121    -28.8854225247    -13.5790119904
|  6>  H    -11.8453014862    -29.7106734661    -14.0895242128
|  7>  H    -11.6106769960    -28.4134418547    -12.9246386905
|  8>  H    -13.3322741115    -28.6268691098    -13.7153053235
|  9> *
| 10>
| 11> %EPRNMR
| 12>         GTENSOR   TRUE
| 13>         NUCLEI    = ALL H {AISO, ADIP, AORB}
| 14>         NUCLEI    = ALL C {AISO, ADIP, AORB}
| 15> END
| 16>
| 17>
| 18>                          ****END OF INPUT****

CARTESIAN COORDINATES (ANGSTROEM)
---------------------------------
  C    -12.318597  -28.885423  -13.579012
  H    -11.845301  -29.710673  -14.089524
  H    -11.610677  -28.413442  -12.924639
  H    -13.332274  -28.626869  -13.715305

 Total Charge           Charge          ....    0
 Multiplicity           Mult            ....    2
 Number of Electrons    NEL             ....    9
 Basis Dimension        Dim             ....   73

ORBITAL ENERGIES
----------------
                 SPIN UP ORBITALS
  NO   OCC          E(Eh)            E(eV)
   0   1.0000     -10.180987      -277.0387
   1   1.0000      -0.690916       -18.8008
   2   1.0000      -0.442238       -12.0339
   3   1.0000      -0.407505       -11.0888
   4   1.0000      -0.234781        -6.3887
   5   0.0000       0.001306         0.0355
   6   0.0000       0.034947         0.9510
   7   0.0000       0.038510         1.0479
   8   0.0000       0.047539         1.2936
   9   0.0000       0.088804         2.4165

                 SPIN DOWN ORBITALS
  NO   OCC          E(Eh)            E(eV)
   0   1.0000     -10.166617      -276.6477
   1   1.0000      -0.651620       -17.7315
   2   1.0000      -0.432800       -11.7771
   3   1.0000      -0.397758       -10.8235
   4   0.0000      -0.077499        -2.1088
   5   0.0000       0.004339         0.1181
   6   0.0000       0.034580         0.9410
   7   0.0000       0.038069         1.0359
   8   0.0000       0.060763         1.6534

MULLIKEN ATOMIC CHARGES AND SPIN POPULATIONS
--------------------------------------------
   0 C :   -0.429170    1.101812
   1 H :    0.136670   -0.035289
   2 H :    0.141088   -0.034911
   3 H :    0.151413   -0.031611
Sum of atomic charges         :   -0.0000000

LOEWDIN ATOMIC CHARGES AND SPIN POPULATIONS
-------------------------------------------
   0 C :   -0.140826    0.902701
   1 H :    0.051081    0.030937
   2 H :    0.048821    0.031792
   3 H :    0.040923    0.034571

  Mayer bond orders larger than 0.100000
B(  0-C ,  1-H ) :   0.9802 B(  0-C ,  2-H ) :   0.9797 B(  0-C ,  3-H ) :   0.9781

FINAL SINGLE POINT ENERGY       -39.826151835657

DIPOLE MOMENT
-------------
                                X             Y             Z
Electronic contribution:     -0.11479       0.06145      -0.00202
Nuclear contribution   :      0.12557      -0.07099       0.00567
                        -----------------------------------------
Total Dipole Moment    :      0.01077      -0.00953       0.00365
                        -----------------------------------------
Magnitude (a.u.)       :      0.01484
Magnitude (Debye)      :      0.03773

Rotational constants in cm-1:    10.821097     8.882011     4.878367
Rotational constants in MHz : 324408.339330 266275.981797 146249.775058

                             ****ORCA TERMINATED NORMALLY****
TOTAL RUN TIME: 0 days 0 hours 0 minutes 19 seconds 16 msec
