                         Program Version 5.0.3 -  RELEASE  -
|  1> !B3LYP EPR-III Autoaux
|  2> !PAL4
|  3>
|  4> * xyz 0 2
|  5>  C    -87.5983457255   -115.7490661186    -32.1542620548
|  6>  H    -87.2026159424   -114.7236079261    -32.0437186304
|  7>  H    -88.6814445936   -115.9516121508    -32.2132471121
|  8>  H    -87.0472465370   -116.6739126942    -32.1981177926
|  9> *
| 10>
| 11> %EPRNMR
| 12>         GTENSOR   TRUE
| 13>         NUCLEI    = ALL H {AISO, ADIP, AORB}
| 14>         NUCLEI    = ALL C {AISO, ADIP, AORB}
| 15> END
| 16>
| 17>
| 18>                          ****END OF INPUT****

CARTESIAN COORDINATES (ANGSTROEM)
---------------------------------
  C    -87.598346  -115.749066  -32.154262
  H    -87.202616  -114.723608  -32.043719
  H    -88.681445  -115.951612  -32.213247
  H    -87.047247  -116.673913  -32.198118

 Total Charge           Charge          ....    0
 Multiplicity           Mult            ....    2
 Number of Electrons    NEL             ....    9
 Basis Dimension        Dim             ....   73

ORBITAL ENERGIES
----------------
                 SPIN UP ORBITALS
  NO   OCC          E(Eh)            E(eV)
   0   1.0000     -10.188756      -277.2501
   1   1.0000      -0.684036       -18.6136
   2   1.0000      -0.433633       -11.7997
   3   1.0000      -0.404544       -11.0082
   4   1.0000      -0.234812        -6.3896
   5   0.0000       0.000399         0.0109
   6   0.0000       0.034952         0.9511
   7   0.0000       0.038347         1.0435
   8   0.0000       0.047411         1.2901
   9   0.0000       0.084223         2.2918

                 SPIN DOWN ORBITALS
  NO   OCC          E(Eh)            E(eV)
   0   1.0000     -10.174235      -276.8550
   1   1.0000      -0.644488       -17.5374
   2   1.0000      -0.424528       -11.5520
   3   1.0000      -0.394960       -10.7474
   4   0.0000      -0.077213        -2.1011
   5   0.0000       0.003690         0.1004
   6   0.0000       0.034646         0.9428
   7   0.0000       0.037949         1.0326
   8   0.0000       0.060710         1.6520

MULLIKEN ATOMIC CHARGES AND SPIN POPULATIONS
--------------------------------------------
   0 C :   -0.429450    1.106882
   1 H :    0.150367   -0.035099
   2 H :    0.135301   -0.036737
   3 H :    0.143782   -0.035046
Sum of atomic charges         :   -0.0000000

LOEWDIN ATOMIC CHARGES AND SPIN POPULATIONS
-------------------------------------------
   0 C :   -0.164215    0.914283
   1 H :    0.060965    0.026702
   2 H :    0.057081    0.027511
   3 H :    0.046170    0.031505

  Mayer bond orders larger than 0.100000
B(  0-C ,  1-H ) :   0.9735 B(  0-C ,  2-H ) :   0.9771 B(  0-C ,  3-H ) :   0.9760

FINAL SINGLE POINT ENERGY       -39.825671333372

DIPOLE MOMENT
-------------
                                X             Y             Z
Electronic contribution:      0.09426       0.06566      -0.00073
Nuclear contribution   :     -0.10213      -0.07640       0.00577
                        -----------------------------------------
Total Dipole Moment    :     -0.00788      -0.01073       0.00505
                        -----------------------------------------
Magnitude (a.u.)       :      0.01424
Magnitude (Debye)      :      0.03619

Rotational constants in cm-1:    10.481744     8.355107     4.649530
Rotational constants in MHz : 314234.770255 250479.792426 139389.409036

                             ****ORCA TERMINATED NORMALLY****
TOTAL RUN TIME: 0 days 0 hours 0 minutes 23 seconds 149 msec
