                         Program Version 5.0.3 -  RELEASE  -
|  1> !B3LYP EPR-III Autoaux
|  2> !PAL4
|  3>
|  4> * xyz 0 2
|  5>  C    -28.3639111805    -46.9546939805    -17.7096338772
|  6>  H    -27.5040572191    -47.7197984300    -17.5261087019
|  7>  H    -27.9984376732    -45.9605856831    -17.7052086641
|  8>  H    -29.4462513020    -47.1645877260    -17.8263798180
|  9> *
| 10>
| 11> %EPRNMR
| 12>         GTENSOR   TRUE
| 13>         NUCLEI    = ALL H {AISO, ADIP, AORB}
| 14>         NUCLEI    = ALL C {AISO, ADIP, AORB}
| 15> END
| 16>
| 17>
| 18>                          ****END OF INPUT****

CARTESIAN COORDINATES (ANGSTROEM)
---------------------------------
  C    -28.363911  -46.954694  -17.709634
  H    -27.504057  -47.719798  -17.526109
  H    -27.998438  -45.960586  -17.705209
  H    -29.446251  -47.164588  -17.826380

 Total Charge           Charge          ....    0
 Multiplicity           Mult            ....    2
 Number of Electrons    NEL             ....    9
 Basis Dimension        Dim             ....   73

ORBITAL ENERGIES
----------------
                 SPIN UP ORBITALS
  NO   OCC          E(Eh)            E(eV)
   0   1.0000     -10.193402      -277.3766
   1   1.0000      -0.680864       -18.5273
   2   1.0000      -0.428643       -11.6640
   3   1.0000      -0.402886       -10.9631
   4   1.0000      -0.235053        -6.3961
   5   0.0000      -0.000596        -0.0162
   6   0.0000       0.034973         0.9517
   7   0.0000       0.038107         1.0369
   8   0.0000       0.047218         1.2849
   9   0.0000       0.077112         2.0983

                 SPIN DOWN ORBITALS
  NO   OCC          E(Eh)            E(eV)
   0   1.0000     -10.178816      -276.9797
   1   1.0000      -0.641222       -17.4485
   2   1.0000      -0.419588       -11.4176
   3   1.0000      -0.393564       -10.7094
   4   0.0000      -0.077216        -2.1011
   5   0.0000       0.002927         0.0796
   6   0.0000       0.034686         0.9438
   7   0.0000       0.037754         1.0273
   8   0.0000       0.060550         1.6476

MULLIKEN ATOMIC CHARGES AND SPIN POPULATIONS
--------------------------------------------
   0 C :   -0.430330    1.109297
   1 H :    0.138600   -0.040392
   2 H :    0.141583   -0.033702
   3 H :    0.150148   -0.035203
Sum of atomic charges         :   -0.0000000

LOEWDIN ATOMIC CHARGES AND SPIN POPULATIONS
-------------------------------------------
   0 C :   -0.175185    0.920591
   1 H :    0.082202    0.017835
   2 H :    0.032579    0.035143
   3 H :    0.060404    0.026432

  Mayer bond orders larger than 0.100000
B(  0-C ,  1-H ) :   0.9733 B(  0-C ,  2-H ) :   0.9739 B(  0-C ,  3-H ) :   0.9716

FINAL SINGLE POINT ENERGY       -39.821818237120

DIPOLE MOMENT
-------------
                                X             Y             Z
Electronic contribution:     -0.10369       0.00995      -0.03981
Nuclear contribution   :      0.10717       0.01432       0.05337
                        -----------------------------------------
Total Dipole Moment    :      0.00348       0.02427       0.01356
                        -----------------------------------------
Magnitude (a.u.)       :      0.02802
Magnitude (Debye)      :      0.07123

Rotational constants in cm-1:    10.384685     7.971487     4.511498
Rotational constants in MHz : 311325.030295 238979.165977 135251.309724

                             ****ORCA TERMINATED NORMALLY****
TOTAL RUN TIME: 0 days 0 hours 0 minutes 21 seconds 956 msec
