                         Program Version 5.0.3 -  RELEASE  -
|  1> !B3LYP EPR-III Autoaux
|  2> !PAL4
|  3>
|  4> * xyz 0 2
|  5>  C     -1.6923847874    -16.8200100257    -10.8292202172
|  6>  H     -2.2905361399    -17.2868285185    -11.6146025168
|  7>  H     -0.6942785949    -17.2127912062    -10.8418522561
|  8>  H     -1.9956245622    -16.1541435751     -9.9982518200
|  9> *
| 10>
| 11> %EPRNMR
| 12>         GTENSOR   TRUE
| 13>         NUCLEI    = ALL H {AISO, ADIP, AORB}
| 14>         NUCLEI    = ALL C {AISO, ADIP, AORB}
| 15> END
| 16>
| 17>
| 18>                          ****END OF INPUT****

CARTESIAN COORDINATES (ANGSTROEM)
---------------------------------
  C     -1.692385  -16.820010  -10.829220
  H     -2.290536  -17.286829  -11.614603
  H     -0.694279  -17.212791  -10.841852
  H     -1.995625  -16.154144   -9.998252

 Total Charge           Charge          ....    0
 Multiplicity           Mult            ....    2
 Number of Electrons    NEL             ....    9
 Basis Dimension        Dim             ....   73

ORBITAL ENERGIES
----------------
                 SPIN UP ORBITALS
  NO   OCC          E(Eh)            E(eV)
   0   1.0000     -10.187377      -277.2126
   1   1.0000      -0.685634       -18.6571
   2   1.0000      -0.433161       -11.7869
   3   1.0000      -0.406057       -11.0494
   4   1.0000      -0.235324        -6.4035
   5   0.0000       0.000470         0.0128
   6   0.0000       0.034913         0.9500
   7   0.0000       0.038481         1.0471
   8   0.0000       0.047421         1.2904
   9   0.0000       0.081580         2.2199

                 SPIN DOWN ORBITALS
  NO   OCC          E(Eh)            E(eV)
   0   1.0000     -10.172869      -276.8178
   1   1.0000      -0.646296       -17.5866
   2   1.0000      -0.424103       -11.5404
   3   1.0000      -0.396198       -10.7811
   4   0.0000      -0.077542        -2.1100
   5   0.0000       0.003700         0.1007
   6   0.0000       0.034611         0.9418
   7   0.0000       0.038072         1.0360
   8   0.0000       0.060683         1.6513

MULLIKEN ATOMIC CHARGES AND SPIN POPULATIONS
--------------------------------------------
   0 C :   -0.429428    1.105062
   1 H :    0.144234   -0.035515
   2 H :    0.135607   -0.034524
   3 H :    0.149587   -0.035023
Sum of atomic charges         :   -0.0000000

LOEWDIN ATOMIC CHARGES AND SPIN POPULATIONS
-------------------------------------------
   0 C :   -0.160762    0.912137
   1 H :    0.054848    0.028965
   2 H :    0.042899    0.032582
   3 H :    0.063016    0.026317

  Mayer bond orders larger than 0.100000
B(  0-C ,  1-H ) :   0.9765 B(  0-C ,  2-H ) :   0.9777 B(  0-C ,  3-H ) :   0.9744

FINAL SINGLE POINT ENERGY       -39.825138700546

DIPOLE MOMENT
-------------
                                X             Y             Z
Electronic contribution:     -0.06349       0.10443      -0.00504
Nuclear contribution   :      0.07249      -0.14520       0.02470
                        -----------------------------------------
Total Dipole Moment    :      0.00900      -0.04077       0.01966
                        -----------------------------------------
Magnitude (a.u.)       :      0.04615
Magnitude (Debye)      :      0.11730

Rotational constants in cm-1:    10.816208     8.257947     4.697386
Rotational constants in MHz : 324261.772422 247567.017208 140824.091384

                             ****ORCA TERMINATED NORMALLY****
TOTAL RUN TIME: 0 days 0 hours 0 minutes 24 seconds 532 msec
