                         Program Version 5.0.3 -  RELEASE  -
|  1> !B3LYP EPR-III Autoaux
|  2> !PAL4
|  3>
|  4> * xyz 0 2
|  5>  C    -49.6764415774    -70.8334669633    -23.0753936387
|  6>  H    -48.6332005642    -70.7886689825    -23.1210425587
|  7>  H    -50.1402777827    -69.8578906211    -22.9112163712
|  8>  H    -50.0878745352    -71.7484557873    -23.2027797610
|  9> *
| 10>
| 11> %EPRNMR
| 12>         GTENSOR   TRUE
| 13>         NUCLEI    = ALL H {AISO, ADIP, AORB}
| 14>         NUCLEI    = ALL C {AISO, ADIP, AORB}
| 15> END
| 16>
| 17>
| 18>                          ****END OF INPUT****

CARTESIAN COORDINATES (ANGSTROEM)
---------------------------------
  C    -49.676442  -70.833467  -23.075394
  H    -48.633201  -70.788669  -23.121043
  H    -50.140278  -69.857891  -22.911216
  H    -50.087875  -71.748456  -23.202780

 Total Charge           Charge          ....    0
 Multiplicity           Mult            ....    2
 Number of Electrons    NEL             ....    9
 Basis Dimension        Dim             ....   73

ORBITAL ENERGIES
----------------
                 SPIN UP ORBITALS
  NO   OCC          E(Eh)            E(eV)
   0   1.0000     -10.174720      -276.8682
   1   1.0000      -0.697146       -18.9703
   2   1.0000      -0.445684       -12.1277
   3   1.0000      -0.412442       -11.2231
   4   1.0000      -0.234768        -6.3884
   5   0.0000       0.001735         0.0472
   6   0.0000       0.034994         0.9522
   7   0.0000       0.038507         1.0478
   8   0.0000       0.047626         1.2960
   9   0.0000       0.087089         2.3698

                 SPIN DOWN ORBITALS
  NO   OCC          E(Eh)            E(eV)
   0   1.0000     -10.160452      -276.4800
   1   1.0000      -0.658083       -17.9074
   2   1.0000      -0.436017       -11.8646
   3   1.0000      -0.402448       -10.9512
   4   0.0000      -0.077682        -2.1138
   5   0.0000       0.004629         0.1260
   6   0.0000       0.034608         0.9417
   7   0.0000       0.038038         1.0351
   8   0.0000       0.060791         1.6542

MULLIKEN ATOMIC CHARGES AND SPIN POPULATIONS
--------------------------------------------
   0 C :   -0.431032    1.098514
   1 H :    0.135397   -0.033100
   2 H :    0.143968   -0.035608
   3 H :    0.151667   -0.029805
Sum of atomic charges         :    0.0000000

LOEWDIN ATOMIC CHARGES AND SPIN POPULATIONS
-------------------------------------------
   0 C :   -0.121225    0.893492
   1 H :    0.037399    0.036555
   2 H :    0.063232    0.027996
   3 H :    0.020595    0.041957

  Mayer bond orders larger than 0.100000
B(  0-C ,  1-H ) :   0.9825 B(  0-C ,  2-H ) :   0.9811 B(  0-C ,  3-H ) :   0.9819

FINAL SINGLE POINT ENERGY       -39.822114275269

DIPOLE MOMENT
-------------
                                X             Y             Z
Electronic contribution:     -0.10382      -0.07789       0.00069
Nuclear contribution   :      0.12589       0.07898      -0.00664
                        -----------------------------------------
Total Dipole Moment    :      0.02207       0.00110      -0.00595
                        -----------------------------------------
Magnitude (a.u.)       :      0.02289
Magnitude (Debye)      :      0.05817

Rotational constants in cm-1:    11.382265     9.103174     5.058211
Rotational constants in MHz : 341231.708935 272906.290931 151641.342873

                             ****ORCA TERMINATED NORMALLY****
TOTAL RUN TIME: 0 days 0 hours 0 minutes 19 seconds 74 msec
