                         Program Version 5.0.3 -  RELEASE  -
|  1> !B3LYP EPR-III Autoaux
|  2> !PAL4
|  3>
|  4> * xyz 0 2
|  5>  C    -51.6172678415    -72.9726517152    -23.5567112270
|  6>  H    -51.6656824284    -71.8778775100    -23.5249316914
|  7>  H    -52.3616858566    -73.7171962248    -23.6131723218
|  8>  H    -50.5467710615    -73.4541109317    -23.5929926602
|  9> *
| 10>
| 11> %EPRNMR
| 12>         GTENSOR   TRUE
| 13>         NUCLEI    = ALL H {AISO, ADIP, AORB}
| 14>         NUCLEI    = ALL C {AISO, ADIP, AORB}
| 15> END
| 16>
| 17>
| 18>                          ****END OF INPUT****

CARTESIAN COORDINATES (ANGSTROEM)
---------------------------------
  C    -51.617268  -72.972652  -23.556711
  H    -51.665682  -71.877878  -23.524932
  H    -52.361686  -73.717196  -23.613172
  H    -50.546771  -73.454111  -23.592993

 Total Charge           Charge          ....    0
 Multiplicity           Mult            ....    2
 Number of Electrons    NEL             ....    9
 Basis Dimension        Dim             ....   73

ORBITAL ENERGIES
----------------
                 SPIN UP ORBITALS
  NO   OCC          E(Eh)            E(eV)
   0   1.0000     -10.192842      -277.3613
   1   1.0000      -0.681801       -18.5527
   2   1.0000      -0.441372       -12.0103
   3   1.0000      -0.391971       -10.6661
   4   1.0000      -0.235476        -6.4076
   5   0.0000      -0.000246        -0.0067
   6   0.0000       0.034243         0.9318
   7   0.0000       0.038736         1.0541
   8   0.0000       0.047285         1.2867
   9   0.0000       0.080467         2.1896

                 SPIN DOWN ORBITALS
  NO   OCC          E(Eh)            E(eV)
   0   1.0000     -10.178218      -276.9634
   1   1.0000      -0.642015       -17.4701
   2   1.0000      -0.432089       -11.7577
   3   1.0000      -0.382866       -10.4183
   4   0.0000      -0.077461        -2.1078
   5   0.0000       0.003189         0.0868
   6   0.0000       0.033948         0.9238
   7   0.0000       0.038436         1.0459
   8   0.0000       0.060585         1.6486

MULLIKEN ATOMIC CHARGES AND SPIN POPULATIONS
--------------------------------------------
   0 C :   -0.429591    1.109643
   1 H :    0.152938   -0.035002
   2 H :    0.151813   -0.033341
   3 H :    0.124841   -0.041300
Sum of atomic charges         :    0.0000000

LOEWDIN ATOMIC CHARGES AND SPIN POPULATIONS
-------------------------------------------
   0 C :   -0.170780    0.919475
   1 H :    0.055522    0.028182
   2 H :    0.033070    0.035441
   3 H :    0.082188    0.016903

  Mayer bond orders larger than 0.100000
B(  0-C ,  1-H ) :   0.9723 B(  0-C ,  2-H ) :   0.9737 B(  0-C ,  3-H ) :   0.9771

FINAL SINGLE POINT ENERGY       -39.820477611739

DIPOLE MOMENT
-------------
                                X             Y             Z
Electronic contribution:     -0.21168       0.09466       0.02990
Nuclear contribution   :      0.20810      -0.09835      -0.04569
                        -----------------------------------------
Total Dipole Moment    :     -0.00358      -0.00370      -0.01580
                        -----------------------------------------
Magnitude (a.u.)       :      0.01661
Magnitude (Debye)      :      0.04222

Rotational constants in cm-1:     9.851072     8.407144     4.538036
Rotational constants in MHz : 295327.723822 252039.834388 136046.894148

                             ****ORCA TERMINATED NORMALLY****
TOTAL RUN TIME: 0 days 0 hours 0 minutes 19 seconds 883 msec
