                         Program Version 5.0.3 -  RELEASE  -
|  1> !B3LYP EPR-III Autoaux
|  2> !PAL4
|  3>
|  4> * xyz 0 2
|  5>  C    -80.2784383974   -106.7349950569    -30.4418868811
|  6>  H    -80.0097889349   -105.7122014390    -30.3485762161
|  7>  H    -81.3535864063   -106.9740504626    -30.5187386347
|  8>  H    -79.6299726652   -107.5306157281    -30.4878590362
|  9> *
| 10>
| 11> %EPRNMR
| 12>         GTENSOR   TRUE
| 13>         NUCLEI    = ALL H {AISO, ADIP, AORB}
| 14>         NUCLEI    = ALL C {AISO, ADIP, AORB}
| 15> END
| 16>
| 17>
| 18>                          ****END OF INPUT****

CARTESIAN COORDINATES (ANGSTROEM)
---------------------------------
  C    -80.278438  -106.734995  -30.441887
  H    -80.009789  -105.712201  -30.348576
  H    -81.353586  -106.974050  -30.518739
  H    -79.629973  -107.530616  -30.487859

 Total Charge           Charge          ....    0
 Multiplicity           Mult            ....    2
 Number of Electrons    NEL             ....    9
 Basis Dimension        Dim             ....   73

ORBITAL ENERGIES
----------------
                 SPIN UP ORBITALS
  NO   OCC          E(Eh)            E(eV)
   0   1.0000     -10.179324      -276.9935
   1   1.0000      -0.692336       -18.8394
   2   1.0000      -0.440148       -11.9770
   3   1.0000      -0.412616       -11.2279
   4   1.0000      -0.234771        -6.3884
   5   0.0000       0.001460         0.0397
   6   0.0000       0.035650         0.9701
   7   0.0000       0.037906         1.0315
   8   0.0000       0.047563         1.2943
   9   0.0000       0.090155         2.4532

                 SPIN DOWN ORBITALS
  NO   OCC          E(Eh)            E(eV)
   0   1.0000     -10.164981      -276.6032
   1   1.0000      -0.653031       -17.7699
   2   1.0000      -0.430414       -11.7122
   3   1.0000      -0.403102       -10.9690
   4   0.0000      -0.077525        -2.1096
   5   0.0000       0.004455         0.1212
   6   0.0000       0.035247         0.9591
   7   0.0000       0.037489         1.0201
   8   0.0000       0.060772         1.6537

MULLIKEN ATOMIC CHARGES AND SPIN POPULATIONS
--------------------------------------------
   0 C :   -0.427632    1.100249
   1 H :    0.145794   -0.032957
   2 H :    0.133787   -0.036304
   3 H :    0.148051   -0.030988
Sum of atomic charges         :   -0.0000000

LOEWDIN ATOMIC CHARGES AND SPIN POPULATIONS
-------------------------------------------
   0 C :   -0.133719    0.900028
   1 H :    0.044600    0.033519
   2 H :    0.063180    0.026938
   3 H :    0.025939    0.039515

  Mayer bond orders larger than 0.100000
B(  0-C ,  1-H ) :   0.9793 B(  0-C ,  2-H ) :   0.9806 B(  0-C ,  3-H ) :   0.9795

FINAL SINGLE POINT ENERGY       -39.825834506360

DIPOLE MOMENT
-------------
                                X             Y             Z
Electronic contribution:      0.11761       0.00658       0.01576
Nuclear contribution   :     -0.11844      -0.00891      -0.02212
                        -----------------------------------------
Total Dipole Moment    :     -0.00083      -0.00233      -0.00636
                        -----------------------------------------
Magnitude (a.u.)       :      0.00683
Magnitude (Debye)      :      0.01735

Rotational constants in cm-1:    10.161866     9.533354     4.919134
Rotational constants in MHz : 304645.066365 285802.748778 147471.932452

                             ****ORCA TERMINATED NORMALLY****
TOTAL RUN TIME: 0 days 0 hours 0 minutes 26 seconds 764 msec
