                         Program Version 5.0.3 -  RELEASE  -
|  1> !B3LYP EPR-III Autoaux
|  2> !PAL4
|  3>
|  4> * xyz 0 2
|  5>  C    -75.4988663155   -100.8731157030    -29.2834867184
|  6>  H    -76.5110006780   -101.1916059661    -29.3430164318
|  7>  H    -74.7122947427   -101.4851633897    -29.3300862930
|  8>  H    -75.1387036589    -99.8519060180    -29.2057130220
|  9> *
| 10>
| 11> %EPRNMR
| 12>         GTENSOR   TRUE
| 13>         NUCLEI    = ALL H {AISO, ADIP, AORB}
| 14>         NUCLEI    = ALL C {AISO, ADIP, AORB}
| 15> END
| 16>
| 17>
| 18>                          ****END OF INPUT****

CARTESIAN COORDINATES (ANGSTROEM)
---------------------------------
  C    -75.498866  -100.873116  -29.283487
  H    -76.511001  -101.191606  -29.343016
  H    -74.712295  -101.485163  -29.330086
  H    -75.138704  -99.851906  -29.205713

 Total Charge           Charge          ....    0
 Multiplicity           Mult            ....    2
 Number of Electrons    NEL             ....    9
 Basis Dimension        Dim             ....   73

ORBITAL ENERGIES
----------------
                 SPIN UP ORBITALS
  NO   OCC          E(Eh)            E(eV)
   0   1.0000     -10.174304      -276.8569
   1   1.0000      -0.697985       -18.9931
   2   1.0000      -0.445184       -12.1141
   3   1.0000      -0.412761       -11.2318
   4   1.0000      -0.234784        -6.3888
   5   0.0000       0.001688         0.0459
   6   0.0000       0.035062         0.9541
   7   0.0000       0.038484         1.0472
   8   0.0000       0.047630         1.2961
   9   0.0000       0.088522         2.4088

                 SPIN DOWN ORBITALS
  NO   OCC          E(Eh)            E(eV)
   0   1.0000     -10.160039      -276.4687
   1   1.0000      -0.659013       -17.9327
   2   1.0000      -0.435493       -11.8504
   3   1.0000      -0.402684       -10.9576
   4   0.0000      -0.077694        -2.1142
   5   0.0000       0.004584         0.1247
   6   0.0000       0.034680         0.9437
   7   0.0000       0.038011         1.0343
   8   0.0000       0.060793         1.6543

MULLIKEN ATOMIC CHARGES AND SPIN POPULATIONS
--------------------------------------------
   0 C :   -0.431645    1.098730
   1 H :    0.150046   -0.032061
   2 H :    0.144857   -0.030783
   3 H :    0.136742   -0.035886
Sum of atomic charges         :   -0.0000000

LOEWDIN ATOMIC CHARGES AND SPIN POPULATIONS
-------------------------------------------
   0 C :   -0.119909    0.892966
   1 H :    0.049560    0.032761
   2 H :    0.011066    0.044796
   3 H :    0.059283    0.029476

  Mayer bond orders larger than 0.100000
B(  0-C ,  1-H ) :   0.9806 B(  0-C ,  2-H ) :   0.9817 B(  0-C ,  3-H ) :   0.9830

FINAL SINGLE POINT ENERGY       -39.820551669741

DIPOLE MOMENT
-------------
                                X             Y             Z
Electronic contribution:     -0.07974      -0.07625       0.00969
Nuclear contribution   :      0.10088       0.06796      -0.02125
                        -----------------------------------------
Total Dipole Moment    :      0.02114      -0.00829      -0.01156
                        -----------------------------------------
Magnitude (a.u.)       :      0.02549
Magnitude (Debye)      :      0.06478

Rotational constants in cm-1:    11.885595     8.825247     5.065855
Rotational constants in MHz : 356321.163122 264574.240663 151870.521802

                             ****ORCA TERMINATED NORMALLY****
TOTAL RUN TIME: 0 days 0 hours 0 minutes 26 seconds 853 msec
