                         Program Version 5.0.3 -  RELEASE  -
|  1> !B3LYP EPR-III Autoaux
|  2> !PAL4
|  3>
|  4> * xyz 0 2
|  5>  C    -33.3202409219    -52.5516014313    -18.9568490830
|  6>  H    -34.0425082188    -53.2451541113    -18.9422113390
|  7>  H    -32.2082798442    -52.6431497339    -19.1655100309
|  8>  H    -33.6213982336    -51.5639552041    -18.7385288036
|  9> *
| 10>
| 11> %EPRNMR
| 12>         GTENSOR   TRUE
| 13>         NUCLEI    = ALL H {AISO, ADIP, AORB}
| 14>         NUCLEI    = ALL C {AISO, ADIP, AORB}
| 15> END
| 16>
| 17>
| 18>                          ****END OF INPUT****

CARTESIAN COORDINATES (ANGSTROEM)
---------------------------------
  C    -33.320241  -52.551601  -18.956849
  H    -34.042508  -53.245154  -18.942211
  H    -32.208280  -52.643150  -19.165510
  H    -33.621398  -51.563955  -18.738529

 Total Charge           Charge          ....    0
 Multiplicity           Mult            ....    2
 Number of Electrons    NEL             ....    9
 Basis Dimension        Dim             ....   73

ORBITAL ENERGIES
----------------
                 SPIN UP ORBITALS
  NO   OCC          E(Eh)            E(eV)
   0   1.0000     -10.178957      -276.9835
   1   1.0000      -0.694334       -18.8938
   2   1.0000      -0.443632       -12.0718
   3   1.0000      -0.408055       -11.1037
   4   1.0000      -0.234926        -6.3927
   5   0.0000       0.001222         0.0332
   6   0.0000       0.034794         0.9468
   7   0.0000       0.038501         1.0477
   8   0.0000       0.047543         1.2937
   9   0.0000       0.082505         2.2451

                 SPIN DOWN ORBITALS
  NO   OCC          E(Eh)            E(eV)
   0   1.0000     -10.164598      -276.5928
   1   1.0000      -0.655140       -17.8273
   2   1.0000      -0.433930       -11.8078
   3   1.0000      -0.398338       -10.8393
   4   0.0000      -0.077609        -2.1118
   5   0.0000       0.004253         0.1157
   6   0.0000       0.034464         0.9378
   7   0.0000       0.038074         1.0360
   8   0.0000       0.060740         1.6528

MULLIKEN ATOMIC CHARGES AND SPIN POPULATIONS
--------------------------------------------
   0 C :   -0.431431    1.101456
   1 H :    0.153486   -0.029199
   2 H :    0.142598   -0.038526
   3 H :    0.135347   -0.033731
Sum of atomic charges         :   -0.0000000

LOEWDIN ATOMIC CHARGES AND SPIN POPULATIONS
-------------------------------------------
   0 C :   -0.131246    0.899398
   1 H :    0.011877    0.044112
   2 H :    0.079302    0.021458
   3 H :    0.040068    0.035033

  Mayer bond orders larger than 0.100000
B(  0-C ,  1-H ) :   0.9802 B(  0-C ,  2-H ) :   0.9785 B(  0-C ,  3-H ) :   0.9811

FINAL SINGLE POINT ENERGY       -39.819663252366

DIPOLE MOMENT
-------------
                                X             Y             Z
Electronic contribution:     -0.07563      -0.13134      -0.01132
Nuclear contribution   :      0.06636       0.15180       0.01821
                        -----------------------------------------
Total Dipole Moment    :     -0.00927       0.02046       0.00689
                        -----------------------------------------
Magnitude (a.u.)       :      0.02350
Magnitude (Debye)      :      0.05973

Rotational constants in cm-1:    11.210105     8.756304     4.916241
Rotational constants in MHz : 336070.490931 262507.397551 147385.199968

                             ****ORCA TERMINATED NORMALLY****
TOTAL RUN TIME: 0 days 0 hours 0 minutes 17 seconds 688 msec
