                         Program Version 5.0.3 -  RELEASE  -
|  1> !B3LYP EPR-III Autoaux
|  2> !PAL4
|  3>
|  4> * xyz 0 2
|  5>  C    -82.9257048002   -109.9696126766    -31.0839413092
|  6>  H    -83.9242962344   -110.4087007877    -31.1633614883
|  7>  H    -82.0571609533   -110.5780042386    -31.1121134055
|  8>  H    -82.6014089607   -108.8587795398    -30.9916810525
|  9> *
| 10>
| 11> %EPRNMR
| 12>         GTENSOR   TRUE
| 13>         NUCLEI    = ALL H {AISO, ADIP, AORB}
| 14>         NUCLEI    = ALL C {AISO, ADIP, AORB}
| 15> END
| 16>
| 17>
| 18>                          ****END OF INPUT****

CARTESIAN COORDINATES (ANGSTROEM)
---------------------------------
  C    -82.925705  -109.969613  -31.083941
  H    -83.924296  -110.408701  -31.163361
  H    -82.057161  -110.578004  -31.112113
  H    -82.601409  -108.858780  -30.991681

 Total Charge           Charge          ....    0
 Multiplicity           Mult            ....    2
 Number of Electrons    NEL             ....    9
 Basis Dimension        Dim             ....   73

ORBITAL ENERGIES
----------------
                 SPIN UP ORBITALS
  NO   OCC          E(Eh)            E(eV)
   0   1.0000     -10.191484      -277.3244
   1   1.0000      -0.682511       -18.5721
   2   1.0000      -0.433827       -11.8050
   3   1.0000      -0.399643       -10.8748
   4   1.0000      -0.234983        -6.3942
   5   0.0000      -0.000326        -0.0089
   6   0.0000       0.034485         0.9384
   7   0.0000       0.038604         1.0505
   8   0.0000       0.047342         1.2882
   9   0.0000       0.076541         2.0828

                 SPIN DOWN ORBITALS
  NO   OCC          E(Eh)            E(eV)
   0   1.0000     -10.176890      -276.9273
   1   1.0000      -0.642889       -17.4939
   2   1.0000      -0.424781       -11.5589
   3   1.0000      -0.390123       -10.6158
   4   0.0000      -0.077177        -2.1001
   5   0.0000       0.003134         0.0853
   6   0.0000       0.034218         0.9311
   7   0.0000       0.038253         1.0409
   8   0.0000       0.060662         1.6507

MULLIKEN ATOMIC CHARGES AND SPIN POPULATIONS
--------------------------------------------
   0 C :   -0.431287    1.109524
   1 H :    0.152439   -0.034266
   2 H :    0.139541   -0.034303
   3 H :    0.139307   -0.040955
Sum of atomic charges         :   -0.0000000

LOEWDIN ATOMIC CHARGES AND SPIN POPULATIONS
-------------------------------------------
   0 C :   -0.170859    0.918397
   1 H :    0.054812    0.028627
   2 H :    0.034287    0.034752
   3 H :    0.081760    0.018224

  Mayer bond orders larger than 0.100000
B(  0-C ,  1-H ) :   0.9725 B(  0-C ,  2-H ) :   0.9751 B(  0-C ,  3-H ) :   0.9744

FINAL SINGLE POINT ENERGY       -39.821440247148

DIPOLE MOMENT
-------------
                                X             Y             Z
Electronic contribution:     -0.12352      -0.06487       0.00323
Nuclear contribution   :      0.14559       0.04748      -0.01149
                        -----------------------------------------
Total Dipole Moment    :      0.02207      -0.01739      -0.00826
                        -----------------------------------------
Magnitude (a.u.)       :      0.02928
Magnitude (Debye)      :      0.07443

Rotational constants in cm-1:    10.742987     7.926446     4.561615
Rotational constants in MHz : 322066.651347 237628.875793 136753.762492

                             ****ORCA TERMINATED NORMALLY****
TOTAL RUN TIME: 0 days 0 hours 0 minutes 23 seconds 724 msec
