                         Program Version 5.0.3 -  RELEASE  -
|  1> !B3LYP EPR-III Autoaux
|  2> !PAL4
|  3>
|  4> * xyz 0 2
|  5>  C    -60.1709408072    -82.5633781852    -25.7225633796
|  6>  H    -61.2308288224    -82.2884326976    -25.6577352111
|  7>  H    -60.0301326559    -83.6265530887    -25.8353407241
|  8>  H    -59.3380417003    -81.8096042755    -25.6288265735
|  9> *
| 10>
| 11> %EPRNMR
| 12>         GTENSOR   TRUE
| 13>         NUCLEI    = ALL H {AISO, ADIP, AORB}
| 14>         NUCLEI    = ALL C {AISO, ADIP, AORB}
| 15> END
| 16>
| 17>
| 18>                          ****END OF INPUT****

CARTESIAN COORDINATES (ANGSTROEM)
---------------------------------
  C    -60.170941  -82.563378  -25.722563
  H    -61.230829  -82.288433  -25.657735
  H    -60.030133  -83.626553  -25.835341
  H    -59.338042  -81.809604  -25.628827

 Total Charge           Charge          ....    0
 Multiplicity           Mult            ....    2
 Number of Electrons    NEL             ....    9
 Basis Dimension        Dim             ....   73

ORBITAL ENERGIES
----------------
                 SPIN UP ORBITALS
  NO   OCC          E(Eh)            E(eV)
   0   1.0000     -10.190282      -277.2917
   1   1.0000      -0.682508       -18.5720
   2   1.0000      -0.426078       -11.5942
   3   1.0000      -0.409895       -11.1538
   4   1.0000      -0.234792        -6.3890
   5   0.0000       0.000172         0.0047
   6   0.0000       0.035505         0.9662
   7   0.0000       0.037826         1.0293
   8   0.0000       0.047392         1.2896
   9   0.0000       0.083398         2.2694

                 SPIN DOWN ORBITALS
  NO   OCC          E(Eh)            E(eV)
   0   1.0000     -10.175729      -276.8957
   1   1.0000      -0.642897       -17.4941
   2   1.0000      -0.417059       -11.3488
   3   1.0000      -0.400337       -10.8937
   4   0.0000      -0.077110        -2.0983
   5   0.0000       0.003533         0.0961
   6   0.0000       0.035219         0.9584
   7   0.0000       0.037438         1.0187
   8   0.0000       0.060712         1.6521

MULLIKEN ATOMIC CHARGES AND SPIN POPULATIONS
--------------------------------------------
   0 C :   -0.428360    1.107416
   1 H :    0.138765   -0.035951
   2 H :    0.142373   -0.034715
   3 H :    0.147223   -0.036750
Sum of atomic charges         :   -0.0000000

LOEWDIN ATOMIC CHARGES AND SPIN POPULATIONS
-------------------------------------------
   0 C :   -0.168327    0.916582
   1 H :    0.053627    0.028578
   2 H :    0.045146    0.031557
   3 H :    0.069555    0.023283

  Mayer bond orders larger than 0.100000
B(  0-C ,  1-H ) :   0.9756 B(  0-C ,  2-H ) :   0.9752 B(  0-C ,  3-H ) :   0.9726

FINAL SINGLE POINT ENERGY       -39.825857325199

DIPOLE MOMENT
-------------
                                X             Y             Z
Electronic contribution:      0.05605       0.01617      -0.02176
Nuclear contribution   :     -0.06459      -0.02582       0.03432
                        -----------------------------------------
Total Dipole Moment    :     -0.00854      -0.00965       0.01255
                        -----------------------------------------
Magnitude (a.u.)       :      0.01799
Magnitude (Debye)      :      0.04573

Rotational constants in cm-1:    10.242127     8.346147     4.600289
Rotational constants in MHz : 307051.256961 250211.192333 137913.206173

                             ****ORCA TERMINATED NORMALLY****
TOTAL RUN TIME: 0 days 0 hours 0 minutes 21 seconds 32 msec
