                         Program Version 5.0.3 -  RELEASE  -
|  1> !B3LYP EPR-III Autoaux
|  2> !PAL4
|  3>
|  4> * xyz 0 2
|  5>  C    -58.1581362249    -80.2848452584    -25.2230201944
|  6>  H    -57.6171938888    -79.3279085824    -25.1617366449
|  7>  H    -59.2556542974    -80.2925606252    -25.2003588773
|  8>  H    -57.5162726560    -81.1620471219    -25.2738880781
|  9> *
| 10>
| 11> %EPRNMR
| 12>         GTENSOR   TRUE
| 13>         NUCLEI    = ALL H {AISO, ADIP, AORB}
| 14>         NUCLEI    = ALL C {AISO, ADIP, AORB}
| 15> END
| 16>
| 17>
| 18>                          ****END OF INPUT****

CARTESIAN COORDINATES (ANGSTROEM)
---------------------------------
  C    -58.158136  -80.284845  -25.223020
  H    -57.617194  -79.327909  -25.161737
  H    -59.255654  -80.292561  -25.200359
  H    -57.516273  -81.162047  -25.273888

 Total Charge           Charge          ....    0
 Multiplicity           Mult            ....    2
 Number of Electrons    NEL             ....    9
 Basis Dimension        Dim             ....   73

ORBITAL ENERGIES
----------------
                 SPIN UP ORBITALS
  NO   OCC          E(Eh)            E(eV)
   0   1.0000     -10.188849      -277.2527
   1   1.0000      -0.683409       -18.5965
   2   1.0000      -0.428666       -11.6646
   3   1.0000      -0.410087       -11.1590
   4   1.0000      -0.234746        -6.3878
   5   0.0000       0.000478         0.0130
   6   0.0000       0.035634         0.9697
   7   0.0000       0.037773         1.0278
   8   0.0000       0.047421         1.2904
   9   0.0000       0.086107         2.3431

                 SPIN DOWN ORBITALS
  NO   OCC          E(Eh)            E(eV)
   0   1.0000     -10.174331      -276.8576
   1   1.0000      -0.643789       -17.5184
   2   1.0000      -0.419501       -11.4152
   3   1.0000      -0.400646       -10.9021
   4   0.0000      -0.077157        -2.0995
   5   0.0000       0.003763         0.1024
   6   0.0000       0.035301         0.9606
   7   0.0000       0.037391         1.0175
   8   0.0000       0.060727         1.6525

MULLIKEN ATOMIC CHARGES AND SPIN POPULATIONS
--------------------------------------------
   0 C :   -0.427471    1.106166
   1 H :    0.137059   -0.036106
   2 H :    0.146815   -0.035017
   3 H :    0.143597   -0.035042
Sum of atomic charges         :   -0.0000000

LOEWDIN ATOMIC CHARGES AND SPIN POPULATIONS
-------------------------------------------
   0 C :   -0.163884    0.914345
   1 H :    0.055962    0.027892
   2 H :    0.056670    0.028012
   3 H :    0.051252    0.029751

  Mayer bond orders larger than 0.100000
B(  0-C ,  1-H ) :   0.9763 B(  0-C ,  2-H ) :   0.9743 B(  0-C ,  3-H ) :   0.9753

FINAL SINGLE POINT ENERGY       -39.827447940062

DIPOLE MOMENT
-------------
                                X             Y             Z
Electronic contribution:     -0.05685      -0.05029      -0.01634
Nuclear contribution   :      0.06392       0.05398       0.02479
                        -----------------------------------------
Total Dipole Moment    :      0.00707       0.00368       0.00845
                        -----------------------------------------
Magnitude (a.u.)       :      0.01162
Magnitude (Debye)      :      0.02953

Rotational constants in cm-1:     9.926608     8.729182     4.645338
Rotational constants in MHz : 297592.207397 261694.281317 139263.717962

                             ****ORCA TERMINATED NORMALLY****
TOTAL RUN TIME: 0 days 0 hours 0 minutes 19 seconds 321 msec
