                         Program Version 5.0.3 -  RELEASE  -
|  1> !B3LYP EPR-III Autoaux
|  2> !PAL4
|  3>
|  4> * xyz 0 2
|  5>  C     -8.9028404339    -25.0406355932    -12.6986725729
|  6>  H     -8.1096689174    -25.7236706879    -12.6470965357
|  7>  H     -9.0036330752    -24.1685146352    -13.3376971820
|  8>  H     -9.8079376198    -25.3825475843    -12.1750118696
|  9> *
| 10>
| 11> %EPRNMR
| 12>         GTENSOR   TRUE
| 13>         NUCLEI    = ALL H {AISO, ADIP, AORB}
| 14>         NUCLEI    = ALL C {AISO, ADIP, AORB}
| 15> END
| 16>
| 17>
| 18>                          ****END OF INPUT****

CARTESIAN COORDINATES (ANGSTROEM)
---------------------------------
  C     -8.902840  -25.040636  -12.698673
  H     -8.109669  -25.723671  -12.647097
  H     -9.003633  -24.168515  -13.337697
  H     -9.807938  -25.382548  -12.175012

 Total Charge           Charge          ....    0
 Multiplicity           Mult            ....    2
 Number of Electrons    NEL             ....    9
 Basis Dimension        Dim             ....   73

ORBITAL ENERGIES
----------------
                 SPIN UP ORBITALS
  NO   OCC          E(Eh)            E(eV)
   0   1.0000     -10.183734      -277.1135
   1   1.0000      -0.688862       -18.7449
   2   1.0000      -0.437610       -11.9080
   3   1.0000      -0.407751       -11.0955
   4   1.0000      -0.235929        -6.4200
   5   0.0000       0.001001         0.0272
   6   0.0000       0.035315         0.9610
   7   0.0000       0.038299         1.0422
   8   0.0000       0.047471         1.2918
   9   0.0000       0.086948         2.3660

                 SPIN DOWN ORBITALS
  NO   OCC          E(Eh)            E(eV)
   0   1.0000     -10.169286      -276.7204
   1   1.0000      -0.649658       -17.6781
   2   1.0000      -0.428111       -11.6495
   3   1.0000      -0.398103       -10.8329
   4   0.0000      -0.078027        -2.1232
   5   0.0000       0.004065         0.1106
   6   0.0000       0.034963         0.9514
   7   0.0000       0.037893         1.0311
   8   0.0000       0.060673         1.6510

MULLIKEN ATOMIC CHARGES AND SPIN POPULATIONS
--------------------------------------------
   0 C :   -0.426539    1.100941
   1 H :    0.147305   -0.031774
   2 H :    0.146893   -0.033558
   3 H :    0.132341   -0.035608
Sum of atomic charges         :    0.0000000

LOEWDIN ATOMIC CHARGES AND SPIN POPULATIONS
-------------------------------------------
   0 C :   -0.147703    0.906198
   1 H :    0.034732    0.036170
   2 H :    0.054521    0.029728
   3 H :    0.058449    0.027904

  Mayer bond orders larger than 0.100000
B(  0-C ,  1-H ) :   0.9779 B(  0-C ,  2-H ) :   0.9770 B(  0-C ,  3-H ) :   0.9795

FINAL SINGLE POINT ENERGY       -39.826106415465

DIPOLE MOMENT
-------------
                                X             Y             Z
Electronic contribution:      0.13574       0.07842       0.00996
Nuclear contribution   :     -0.15943      -0.11454      -0.04781
                        -----------------------------------------
Total Dipole Moment    :     -0.02368      -0.03612      -0.03785
                        -----------------------------------------
Magnitude (a.u.)       :      0.05743
Magnitude (Debye)      :      0.14597

Rotational constants in cm-1:    10.359402     8.899728     4.816434
Rotational constants in MHz : 310567.051253 266807.139423 144393.054966

                             ****ORCA TERMINATED NORMALLY****
TOTAL RUN TIME: 0 days 0 hours 0 minutes 25 seconds 717 msec
