                         Program Version 5.0.3 -  RELEASE  -
|  1> !B3LYP EPR-III Autoaux
|  2> !PAL4
|  3>
|  4> * xyz 0 2
|  5>  C    -57.5562966331    -79.6067406708    -25.0673132034
|  6>  H    -56.6664761228    -78.9655004766    -25.0639355827
|  7>  H    -58.3993746493    -79.0156513724    -24.9892326424
|  8>  H    -57.4146995856    -80.7461601551    -25.1689204718
|  9> *
| 10>
| 11> %EPRNMR
| 12>         GTENSOR   TRUE
| 13>         NUCLEI    = ALL H {AISO, ADIP, AORB}
| 14>         NUCLEI    = ALL C {AISO, ADIP, AORB}
| 15> END
| 16>
| 17>
| 18>                          ****END OF INPUT****

CARTESIAN COORDINATES (ANGSTROEM)
---------------------------------
  C    -57.556297  -79.606741  -25.067313
  H    -56.666476  -78.965500  -25.063936
  H    -58.399375  -79.015651  -24.989233
  H    -57.414700  -80.746160  -25.168920

 Total Charge           Charge          ....    0
 Multiplicity           Mult            ....    2
 Number of Electrons    NEL             ....    9
 Basis Dimension        Dim             ....   73

ORBITAL ENERGIES
----------------
                 SPIN UP ORBITALS
  NO   OCC          E(Eh)            E(eV)
   0   1.0000     -10.188052      -277.2310
   1   1.0000      -0.686429       -18.6787
   2   1.0000      -0.434947       -11.8355
   3   1.0000      -0.402382       -10.9494
   4   1.0000      -0.234940        -6.3930
   5   0.0000       0.000127         0.0035
   6   0.0000       0.034445         0.9373
   7   0.0000       0.038575         1.0497
   8   0.0000       0.047397         1.2897
   9   0.0000       0.077811         2.1173

                 SPIN DOWN ORBITALS
  NO   OCC          E(Eh)            E(eV)
   0   1.0000     -10.173521      -276.8356
   1   1.0000      -0.647045       -17.6070
   2   1.0000      -0.425717       -11.5844
   3   1.0000      -0.392690       -10.6856
   4   0.0000      -0.077276        -2.1028
   5   0.0000       0.003464         0.0943
   6   0.0000       0.034226         0.9313
   7   0.0000       0.038170         1.0387
   8   0.0000       0.060684         1.6513

MULLIKEN ATOMIC CHARGES AND SPIN POPULATIONS
--------------------------------------------
   0 C :   -0.432152    1.107815
   1 H :    0.131722   -0.036478
   2 H :    0.150212   -0.032398
   3 H :    0.150217   -0.038939
Sum of atomic charges         :    0.0000000

LOEWDIN ATOMIC CHARGES AND SPIN POPULATIONS
-------------------------------------------
   0 C :   -0.160746    0.913254
   1 H :    0.054203    0.028713
   2 H :    0.023653    0.039136
   3 H :    0.082890    0.018898

  Mayer bond orders larger than 0.100000
B(  0-C ,  1-H ) :   0.9783 B(  0-C ,  2-H ) :   0.9765 B(  0-C ,  3-H ) :   0.9723

FINAL SINGLE POINT ENERGY       -39.819973715816

DIPOLE MOMENT
-------------
                                X             Y             Z
Electronic contribution:     -0.13233      -0.05277       0.01072
Nuclear contribution   :      0.14116       0.06963      -0.01510
                        -----------------------------------------
Total Dipole Moment    :      0.00883       0.01686      -0.00438
                        -----------------------------------------
Magnitude (a.u.)       :      0.01953
Magnitude (Debye)      :      0.04964

Rotational constants in cm-1:    11.096165     8.010161     4.652212
Rotational constants in MHz : 332654.649323 240138.589804 139469.801511

                             ****ORCA TERMINATED NORMALLY****
TOTAL RUN TIME: 0 days 0 hours 0 minutes 20 seconds 796 msec
