                         Program Version 5.0.3 -  RELEASE  -
|  1> !B3LYP EPR-III Autoaux
|  2> !PAL4
|  3>
|  4> * xyz 0 2
|  5>  C    -67.5914701084    -91.2759518133    -27.4491349413
|  6>  H    -68.6278466385    -90.9809273610    -27.4266799242
|  7>  H    -67.2124794145    -92.2596568965    -27.5451435760
|  8>  H    -66.8049972390    -90.4627177335    -27.3599108006
|  9> *
| 10>
| 11> %EPRNMR
| 12>         GTENSOR   TRUE
| 13>         NUCLEI    = ALL H {AISO, ADIP, AORB}
| 14>         NUCLEI    = ALL C {AISO, ADIP, AORB}
| 15> END
| 16>
| 17>
| 18>                          ****END OF INPUT****

CARTESIAN COORDINATES (ANGSTROEM)
---------------------------------
  C    -67.591470  -91.275952  -27.449135
  H    -68.627847  -90.980927  -27.426680
  H    -67.212479  -92.259657  -27.545144
  H    -66.804997  -90.462718  -27.359911

 Total Charge           Charge          ....    0
 Multiplicity           Mult            ....    2
 Number of Electrons    NEL             ....    9
 Basis Dimension        Dim             ....   73

ORBITAL ENERGIES
----------------
                 SPIN UP ORBITALS
  NO   OCC          E(Eh)            E(eV)
   0   1.0000     -10.187307      -277.2107
   1   1.0000      -0.685304       -18.6481
   2   1.0000      -0.435672       -11.8552
   3   1.0000      -0.405730       -11.0405
   4   1.0000      -0.234886        -6.3916
   5   0.0000       0.000631         0.0172
   6   0.0000       0.035401         0.9633
   7   0.0000       0.037965         1.0331
   8   0.0000       0.047428         1.2906
   9   0.0000       0.086352         2.3498

                 SPIN DOWN ORBITALS
  NO   OCC          E(Eh)            E(eV)
   0   1.0000     -10.172813      -276.8163
   1   1.0000      -0.645708       -17.5706
   2   1.0000      -0.426224       -11.5981
   3   1.0000      -0.396474       -10.7886
   4   0.0000      -0.077302        -2.1035
   5   0.0000       0.003862         0.1051
   6   0.0000       0.035043         0.9536
   7   0.0000       0.037605         1.0233
   8   0.0000       0.060709         1.6520

MULLIKEN ATOMIC CHARGES AND SPIN POPULATIONS
--------------------------------------------
   0 C :   -0.427354    1.105248
   1 H :    0.147630   -0.033861
   2 H :    0.147243   -0.033029
   3 H :    0.132481   -0.038358
Sum of atomic charges         :   -0.0000000

LOEWDIN ATOMIC CHARGES AND SPIN POPULATIONS
-------------------------------------------
   0 C :   -0.157068    0.911723
   1 H :    0.048045    0.031219
   2 H :    0.037761    0.034564
   3 H :    0.071262    0.022494

  Mayer bond orders larger than 0.100000
B(  0-C ,  1-H ) :   0.9755 B(  0-C ,  2-H ) :   0.9759 B(  0-C ,  3-H ) :   0.9775

FINAL SINGLE POINT ENERGY       -39.826011620924

DIPOLE MOMENT
-------------
                                X             Y             Z
Electronic contribution:     -0.09462      -0.09598      -0.01141
Nuclear contribution   :      0.09675       0.09335       0.01174
                        -----------------------------------------
Total Dipole Moment    :      0.00213      -0.00263       0.00034
                        -----------------------------------------
Magnitude (a.u.)       :      0.00340
Magnitude (Debye)      :      0.00864

Rotational constants in cm-1:     9.725677     9.048392     4.687412
Rotational constants in MHz : 291568.455810 271263.981177 140525.071737

                             ****ORCA TERMINATED NORMALLY****
TOTAL RUN TIME: 0 days 0 hours 0 minutes 22 seconds 552 msec
