                         Program Version 5.0.3 -  RELEASE  -
|  1> !B3LYP EPR-III Autoaux
|  2> !PAL4
|  3>
|  4> * xyz 0 2
|  5>  C     -1.5487013060    -16.6859056287    -10.7849573786
|  6>  H     -2.2889150200    -16.7637244541    -11.5439430988
|  7>  H     -0.6648581612    -17.3120625723    -10.7086688896
|  8>  H     -1.6776628280    -15.8261550739    -10.2035751733
|  9> *
| 10>
| 11> %EPRNMR
| 12>         GTENSOR   TRUE
| 13>         NUCLEI    = ALL H {AISO, ADIP, AORB}
| 14>         NUCLEI    = ALL C {AISO, ADIP, AORB}
| 15> END
| 16>
| 17>
| 18>                          ****END OF INPUT****

CARTESIAN COORDINATES (ANGSTROEM)
---------------------------------
  C     -1.548701  -16.685906  -10.784957
  H     -2.288915  -16.763724  -11.543943
  H     -0.664858  -17.312063  -10.708669
  H     -1.677663  -15.826155  -10.203575

 Total Charge           Charge          ....    0
 Multiplicity           Mult            ....    2
 Number of Electrons    NEL             ....    9
 Basis Dimension        Dim             ....   73

ORBITAL ENERGIES
----------------
                 SPIN UP ORBITALS
  NO   OCC          E(Eh)            E(eV)
   0   1.0000     -10.179486      -276.9979
   1   1.0000      -0.692406       -18.8413
   2   1.0000      -0.434613       -11.8264
   3   1.0000      -0.416340       -11.3292
   4   1.0000      -0.235350        -6.4042
   5   0.0000       0.001384         0.0377
   6   0.0000       0.035680         0.9709
   7   0.0000       0.038004         1.0341
   8   0.0000       0.047560         1.2942
   9   0.0000       0.089320         2.4305

                 SPIN DOWN ORBITALS
  NO   OCC          E(Eh)            E(eV)
   0   1.0000     -10.165125      -276.6071
   1   1.0000      -0.653324       -17.7779
   2   1.0000      -0.425185       -11.5699
   3   1.0000      -0.406361       -11.0576
   4   0.0000      -0.077839        -2.1181
   5   0.0000       0.004364         0.1187
   6   0.0000       0.035315         0.9610
   7   0.0000       0.037557         1.0220
   8   0.0000       0.060753         1.6532

MULLIKEN ATOMIC CHARGES AND SPIN POPULATIONS
--------------------------------------------
   0 C :   -0.427503    1.099385
   1 H :    0.140678   -0.033439
   2 H :    0.146659   -0.033413
   3 H :    0.140166   -0.032532
Sum of atomic charges         :    0.0000000

LOEWDIN ATOMIC CHARGES AND SPIN POPULATIONS
-------------------------------------------
   0 C :   -0.136496    0.900479
   1 H :    0.044504    0.033526
   2 H :    0.056962    0.029460
   3 H :    0.035031    0.036535

  Mayer bond orders larger than 0.100000
B(  0-C ,  1-H ) :   0.9803 B(  0-C ,  2-H ) :   0.9784 B(  0-C ,  3-H ) :   0.9803

FINAL SINGLE POINT ENERGY       -39.826225827675

DIPOLE MOMENT
-------------
                                X             Y             Z
Electronic contribution:      0.00426      -0.07924       0.04945
Nuclear contribution   :      0.01099       0.11675      -0.07593
                        -----------------------------------------
Total Dipole Moment    :      0.01525       0.03751      -0.02648
                        -----------------------------------------
Magnitude (a.u.)       :      0.04838
Magnitude (Debye)      :      0.12298

Rotational constants in cm-1:    10.955928     8.890933     4.927921
Rotational constants in MHz : 328450.450940 266543.471057 147735.350965

                             ****ORCA TERMINATED NORMALLY****
TOTAL RUN TIME: 0 days 0 hours 0 minutes 24 seconds 540 msec
