                         Program Version 5.0.3 -  RELEASE  -
|  1> !B3LYP EPR-III Autoaux
|  2> !PAL4
|  3>
|  4> * xyz 0 2
|  5>  C      6.5266296687     -7.4639931814     -8.6889088886
|  6>  H      6.9941856816     -8.2856635801     -8.3498604121
|  7>  H      6.5524975957     -6.4613303204     -8.2097507705
|  8>  H      6.0420431626     -7.5741447113     -9.6249230586
|  9> *
| 10>
| 11> %EPRNMR
| 12>         GTENSOR   TRUE
| 13>         NUCLEI    = ALL H {AISO, ADIP, AORB}
| 14>         NUCLEI    = ALL C {AISO, ADIP, AORB}
| 15> END
| 16>
| 17>
| 18>                          ****END OF INPUT****

CARTESIAN COORDINATES (ANGSTROEM)
---------------------------------
  C      6.526630   -7.463993   -8.688909
  H      6.994186   -8.285664   -8.349860
  H      6.552498   -6.461330   -8.209751
  H      6.042043   -7.574145   -9.624923

 Total Charge           Charge          ....    0
 Multiplicity           Mult            ....    2
 Number of Electrons    NEL             ....    9
 Basis Dimension        Dim             ....   73

ORBITAL ENERGIES
----------------
                 SPIN UP ORBITALS
  NO   OCC          E(Eh)            E(eV)
   0   1.0000     -10.177287      -276.9381
   1   1.0000      -0.694903       -18.9093
   2   1.0000      -0.436172       -11.8688
   3   1.0000      -0.418288       -11.3822
   4   1.0000      -0.234889        -6.3917
   5   0.0000       0.001510         0.0411
   6   0.0000       0.035913         0.9773
   7   0.0000       0.037678         1.0253
   8   0.0000       0.047590         1.2950
   9   0.0000       0.087743         2.3876

                 SPIN DOWN ORBITALS
  NO   OCC          E(Eh)            E(eV)
   0   1.0000     -10.162967      -276.5484
   1   1.0000      -0.655780       -17.8447
   2   1.0000      -0.426321       -11.6008
   3   1.0000      -0.408633       -11.1195
   4   0.0000      -0.077612        -2.1119
   5   0.0000       0.004474         0.1217
   6   0.0000       0.035542         0.9671
   7   0.0000       0.037237         1.0133
   8   0.0000       0.060779         1.6539

MULLIKEN ATOMIC CHARGES AND SPIN POPULATIONS
--------------------------------------------
   0 C :   -0.429219    1.099190
   1 H :    0.148922   -0.029754
   2 H :    0.142453   -0.035986
   3 H :    0.137844   -0.033450
Sum of atomic charges         :    0.0000000

LOEWDIN ATOMIC CHARGES AND SPIN POPULATIONS
-------------------------------------------
   0 C :   -0.127289    0.897083
   1 H :    0.013746    0.043636
   2 H :    0.069683    0.025209
   3 H :    0.043860    0.034072

  Mayer bond orders larger than 0.100000
B(  0-C ,  1-H ) :   0.9804 B(  0-C ,  2-H ) :   0.9792 B(  0-C ,  3-H ) :   0.9813

FINAL SINGLE POINT ENERGY       -39.822909281102

DIPOLE MOMENT
-------------
                                X             Y             Z
Electronic contribution:      0.01138      -0.05695       0.06854
Nuclear contribution   :      0.00662       0.05309      -0.08829
                        -----------------------------------------
Total Dipole Moment    :      0.01801      -0.00386      -0.01976
                        -----------------------------------------
Magnitude (a.u.)       :      0.02701
Magnitude (Debye)      :      0.06865

Rotational constants in cm-1:    10.974463     9.069247     4.970964
Rotational constants in MHz : 329006.138038 271889.172684 149025.755719

                             ****ORCA TERMINATED NORMALLY****
TOTAL RUN TIME: 0 days 0 hours 0 minutes 31 seconds 635 msec
