                         Program Version 5.0.3 -  RELEASE  -
|  1> !B3LYP EPR-III Autoaux
|  2> !PAL4
|  3>
|  4> * xyz 0 2
|  5>  C    -56.9330392414    -78.9025202549    -24.9096402967
|  6>  H    -55.8510837369    -78.8784216040    -24.9734099393
|  7>  H    -57.4204578658    -77.9264781629    -24.7946011734
|  8>  H    -57.3512499681    -79.9383746895    -25.0354738295
|  9> *
| 10>
| 11> %EPRNMR
| 12>         GTENSOR   TRUE
| 13>         NUCLEI    = ALL H {AISO, ADIP, AORB}
| 14>         NUCLEI    = ALL C {AISO, ADIP, AORB}
| 15> END
| 16>
| 17>
| 18>                          ****END OF INPUT****

CARTESIAN COORDINATES (ANGSTROEM)
---------------------------------
  C    -56.933039  -78.902520  -24.909640
  H    -55.851084  -78.878422  -24.973410
  H    -57.420458  -77.926478  -24.794601
  H    -57.351250  -79.938375  -25.035474

 Total Charge           Charge          ....    0
 Multiplicity           Mult            ....    2
 Number of Electrons    NEL             ....    9
 Basis Dimension        Dim             ....   73

ORBITAL ENERGIES
----------------
                 SPIN UP ORBITALS
  NO   OCC          E(Eh)            E(eV)
   0   1.0000     -10.190637      -277.3013
   1   1.0000      -0.682514       -18.5722
   2   1.0000      -0.431278       -11.7357
   3   1.0000      -0.403608       -10.9827
   4   1.0000      -0.234911        -6.3923
   5   0.0000       0.000022         0.0006
   6   0.0000       0.034732         0.9451
   7   0.0000       0.038486         1.0472
   8   0.0000       0.047374         1.2891
   9   0.0000       0.078465         2.1351

                 SPIN DOWN ORBITALS
  NO   OCC          E(Eh)            E(eV)
   0   1.0000     -10.176072      -276.9050
   1   1.0000      -0.642936       -17.4952
   2   1.0000      -0.422390       -11.4938
   3   1.0000      -0.393893       -10.7184
   4   0.0000      -0.077184        -2.1003
   5   0.0000       0.003401         0.0926
   6   0.0000       0.034445         0.9373
   7   0.0000       0.038101         1.0368
   8   0.0000       0.060688         1.6514

MULLIKEN ATOMIC CHARGES AND SPIN POPULATIONS
--------------------------------------------
   0 C :   -0.430647    1.108321
   1 H :    0.134481   -0.035429
   2 H :    0.149705   -0.035251
   3 H :    0.146461   -0.037641
Sum of atomic charges         :    0.0000000

LOEWDIN ATOMIC CHARGES AND SPIN POPULATIONS
-------------------------------------------
   0 C :   -0.170468    0.917209
   1 H :    0.046002    0.030913
   2 H :    0.056241    0.028115
   3 H :    0.068226    0.023762

  Mayer bond orders larger than 0.100000
B(  0-C ,  1-H ) :   0.9763 B(  0-C ,  2-H ) :   0.9736 B(  0-C ,  3-H ) :   0.9736

FINAL SINGLE POINT ENERGY       -39.824431945176

DIPOLE MOMENT
-------------
                                X             Y             Z
Electronic contribution:     -0.10923       0.02963       0.03770
Nuclear contribution   :      0.13215      -0.02677      -0.05588
                        -----------------------------------------
Total Dipole Moment    :      0.02292       0.00286      -0.01818
                        -----------------------------------------
Magnitude (a.u.)       :      0.02940
Magnitude (Debye)      :      0.07472

Rotational constants in cm-1:    10.559181     8.129661     4.595856
Rotational constants in MHz : 316556.283799 243721.112388 137780.292456

                             ****ORCA TERMINATED NORMALLY****
TOTAL RUN TIME: 0 days 0 hours 0 minutes 20 seconds 364 msec
