                         Program Version 5.0.3 -  RELEASE  -
|  1> !B3LYP EPR-III Autoaux
|  2> !PAL4
|  3>
|  4> * xyz 0 2
|  5>  C     10.5842575107     -2.8625736264     -7.6583472113
|  6>  H     10.2786929251     -2.3225030904     -8.6180235590
|  7>  H      9.9347821869     -3.3229395254     -6.9408148058
|  8>  H     11.6856744453     -2.9704438900     -7.5348826021
|  9> *
| 10>
| 11> %EPRNMR
| 12>         GTENSOR   TRUE
| 13>         NUCLEI    = ALL H {AISO, ADIP, AORB}
| 14>         NUCLEI    = ALL C {AISO, ADIP, AORB}
| 15> END
| 16>
| 17>
| 18>                          ****END OF INPUT****

CARTESIAN COORDINATES (ANGSTROEM)
---------------------------------
  C     10.584258   -2.862574   -7.658347
  H     10.278693   -2.322503   -8.618024
  H      9.934782   -3.322940   -6.940815
  H     11.685674   -2.970444   -7.534883

 Total Charge           Charge          ....    0
 Multiplicity           Mult            ....    2
 Number of Electrons    NEL             ....    9
 Basis Dimension        Dim             ....   73

ORBITAL ENERGIES
----------------
                 SPIN UP ORBITALS
  NO   OCC          E(Eh)            E(eV)
   0   1.0000     -10.192945      -277.3641
   1   1.0000      -0.680329       -18.5127
   2   1.0000      -0.429738       -11.6938
   3   1.0000      -0.403098       -10.9689
   4   1.0000      -0.235114        -6.3978
   5   0.0000      -0.000155        -0.0042
   6   0.0000       0.035224         0.9585
   7   0.0000       0.038016         1.0345
   8   0.0000       0.047329         1.2879
   9   0.0000       0.081290         2.2120

                 SPIN DOWN ORBITALS
  NO   OCC          E(Eh)            E(eV)
   0   1.0000     -10.178332      -276.9665
   1   1.0000      -0.640568       -17.4308
   2   1.0000      -0.420573       -11.4444
   3   1.0000      -0.393901       -10.7186
   4   0.0000      -0.077197        -2.1006
   5   0.0000       0.003289         0.0895
   6   0.0000       0.034930         0.9505
   7   0.0000       0.037683         1.0254
   8   0.0000       0.060656         1.6505

MULLIKEN ATOMIC CHARGES AND SPIN POPULATIONS
--------------------------------------------
   0 C :   -0.427855    1.108649
   1 H :    0.141860   -0.038673
   2 H :    0.149939   -0.033074
   3 H :    0.136055   -0.036903
Sum of atomic charges         :   -0.0000000

LOEWDIN ATOMIC CHARGES AND SPIN POPULATIONS
-------------------------------------------
   0 C :   -0.174342    0.920161
   1 H :    0.073559    0.021137
   2 H :    0.041712    0.032614
   3 H :    0.059071    0.026089

  Mayer bond orders larger than 0.100000
B(  0-C ,  1-H ) :   0.9729 B(  0-C ,  2-H ) :   0.9728 B(  0-C ,  3-H ) :   0.9747

FINAL SINGLE POINT ENERGY       -39.824615779426

DIPOLE MOMENT
-------------
                                X             Y             Z
Electronic contribution:     -0.09991      -0.00072       0.07983
Nuclear contribution   :      0.10971      -0.02111      -0.08895
                        -----------------------------------------
Total Dipole Moment    :      0.00980      -0.02183      -0.00912
                        -----------------------------------------
Magnitude (a.u.)       :      0.02561
Magnitude (Debye)      :      0.06509

Rotational constants in cm-1:     9.708029     8.483135     4.531856
Rotational constants in MHz : 291039.402587 254317.993974 135861.634366

                             ****ORCA TERMINATED NORMALLY****
TOTAL RUN TIME: 0 days 0 hours 0 minutes 23 seconds 380 msec
