                         Program Version 5.0.3 -  RELEASE  -
|  1> !B3LYP EPR-III Autoaux
|  2> !PAL4
|  3>
|  4> * xyz 0 2
|  5>  C     -2.2919026699    -17.5423235170    -10.9686320284
|  6>  H     -1.9663142589    -18.2721191297    -11.6106346786
|  7>  H     -1.9916779479    -16.5012034856    -11.3872701948
|  8>  H     -2.9532497373    -17.6007207860    -10.1196649549
|  9> *
| 10>
| 11> %EPRNMR
| 12>         GTENSOR   TRUE
| 13>         NUCLEI    = ALL H {AISO, ADIP, AORB}
| 14>         NUCLEI    = ALL C {AISO, ADIP, AORB}
| 15> END
| 16>
| 17>
| 18>                          ****END OF INPUT****

CARTESIAN COORDINATES (ANGSTROEM)
---------------------------------
  C     -2.291903  -17.542324  -10.968632
  H     -1.966314  -18.272119  -11.610635
  H     -1.991678  -16.501203  -11.387270
  H     -2.953250  -17.600721  -10.119665

 Total Charge           Charge          ....    0
 Multiplicity           Mult            ....    2
 Number of Electrons    NEL             ....    9
 Basis Dimension        Dim             ....   73

ORBITAL ENERGIES
----------------
                 SPIN UP ORBITALS
  NO   OCC          E(Eh)            E(eV)
   0   1.0000     -10.186811      -277.1972
   1   1.0000      -0.687755       -18.7148
   2   1.0000      -0.445316       -12.1177
   3   1.0000      -0.396144       -10.7796
   4   1.0000      -0.236074        -6.4239
   5   0.0000       0.000438         0.0119
   6   0.0000       0.034522         0.9394
   7   0.0000       0.038739         1.0542
   8   0.0000       0.047372         1.2890
   9   0.0000       0.083122         2.2619

                 SPIN DOWN ORBITALS
  NO   OCC          E(Eh)            E(eV)
   0   1.0000     -10.172291      -276.8021
   1   1.0000      -0.648356       -17.6427
   2   1.0000      -0.435697       -11.8559
   3   1.0000      -0.386823       -10.5260
   4   0.0000      -0.078015        -2.1229
   5   0.0000       0.003634         0.0989
   6   0.0000       0.034199         0.9306
   7   0.0000       0.038401         1.0449
   8   0.0000       0.060586         1.6486

MULLIKEN ATOMIC CHARGES AND SPIN POPULATIONS
--------------------------------------------
   0 C :   -0.428239    1.104271
   1 H :    0.150333   -0.031438
   2 H :    0.125861   -0.040054
   3 H :    0.152045   -0.032779
Sum of atomic charges         :    0.0000000

LOEWDIN ATOMIC CHARGES AND SPIN POPULATIONS
-------------------------------------------
   0 C :   -0.151764    0.910086
   1 H :    0.020102    0.040311
   2 H :    0.081661    0.018574
   3 H :    0.050001    0.031029

  Mayer bond orders larger than 0.100000
B(  0-C ,  1-H ) :   0.9768 B(  0-C ,  2-H ) :   0.9794 B(  0-C ,  3-H ) :   0.9754

FINAL SINGLE POINT ENERGY       -39.820202481070

DIPOLE MOMENT
-------------
                                X             Y             Z
Electronic contribution:     -0.00740      -0.19519       0.12547
Nuclear contribution   :     -0.02663       0.18956      -0.15865
                        -----------------------------------------
Total Dipole Moment    :     -0.03403      -0.00562      -0.03317
                        -----------------------------------------
Magnitude (a.u.)       :      0.04785
Magnitude (Debye)      :      0.12163

Rotational constants in cm-1:    10.389592     8.568711     4.714786
Rotational constants in MHz : 311472.126097 256883.481607 141345.733496

                             ****ORCA TERMINATED NORMALLY****
TOTAL RUN TIME: 0 days 0 hours 0 minutes 18 seconds 698 msec
