                         Program Version 5.0.3 -  RELEASE  -
|  1> !B3LYP EPR-III Autoaux
|  2> !PAL4
|  3>
|  4> * xyz 0 2
|  5>  C     -6.2956836756    -22.0699259375    -12.0222757733
|  6>  H     -5.6867593189    -21.2599880276    -12.4141555903
|  7>  H     -6.9614877663    -22.0148199460    -11.1630878810
|  8>  H     -6.2020289951    -23.0299306933    -12.4384907594
|  9> *
| 10>
| 11> %EPRNMR
| 12>         GTENSOR   TRUE
| 13>         NUCLEI    = ALL H {AISO, ADIP, AORB}
| 14>         NUCLEI    = ALL C {AISO, ADIP, AORB}
| 15> END
| 16>
| 17>
| 18>                          ****END OF INPUT****

CARTESIAN COORDINATES (ANGSTROEM)
---------------------------------
  C     -6.295684  -22.069926  -12.022276
  H     -5.686759  -21.259988  -12.414156
  H     -6.961488  -22.014820  -11.163088
  H     -6.202029  -23.029931  -12.438491

 Total Charge           Charge          ....    0
 Multiplicity           Mult            ....    2
 Number of Electrons    NEL             ....    9
 Basis Dimension        Dim             ....   73

ORBITAL ENERGIES
----------------
                 SPIN UP ORBITALS
  NO   OCC          E(Eh)            E(eV)
   0   1.0000     -10.182547      -277.0812
   1   1.0000      -0.689288       -18.7565
   2   1.0000      -0.430554       -11.7160
   3   1.0000      -0.416638       -11.3373
   4   1.0000      -0.234800        -6.3892
   5   0.0000       0.001118         0.0304
   6   0.0000       0.035793         0.9740
   7   0.0000       0.037769         1.0277
   8   0.0000       0.047524         1.2932
   9   0.0000       0.087050         2.3687

                 SPIN DOWN ORBITALS
  NO   OCC          E(Eh)            E(eV)
   0   1.0000     -10.168145      -276.6893
   1   1.0000      -0.649973       -17.6867
   2   1.0000      -0.421279       -11.4636
   3   1.0000      -0.406811       -11.0699
   4   0.0000      -0.077407        -2.1064
   5   0.0000       0.004205         0.1144
   6   0.0000       0.035429         0.9641
   7   0.0000       0.037344         1.0162
   8   0.0000       0.060768         1.6536

MULLIKEN ATOMIC CHARGES AND SPIN POPULATIONS
--------------------------------------------
   0 C :   -0.427888    1.102084
   1 H :    0.145751   -0.034187
   2 H :    0.142164   -0.034962
   3 H :    0.139973   -0.032935
Sum of atomic charges         :   -0.0000000

LOEWDIN ATOMIC CHARGES AND SPIN POPULATIONS
-------------------------------------------
   0 C :   -0.145473    0.905093
   1 H :    0.055046    0.029553
   2 H :    0.055346    0.029378
   3 H :    0.035081    0.035977

  Mayer bond orders larger than 0.100000
B(  0-C ,  1-H ) :   0.9774 B(  0-C ,  2-H ) :   0.9783 B(  0-C ,  3-H ) :   0.9788

FINAL SINGLE POINT ENERGY       -39.827171036733

DIPOLE MOMENT
-------------
                                X             Y             Z
Electronic contribution:     -0.01081       0.05154      -0.02848
Nuclear contribution   :      0.02756      -0.07117       0.03829
                        -----------------------------------------
Total Dipole Moment    :      0.01675      -0.01963       0.00981
                        -----------------------------------------
Magnitude (a.u.)       :      0.02761
Magnitude (Debye)      :      0.07017

Rotational constants in cm-1:    10.588555     8.848827     4.825258
Rotational constants in MHz : 317436.890085 265281.164196 144657.596139

                             ****ORCA TERMINATED NORMALLY****
TOTAL RUN TIME: 0 days 0 hours 0 minutes 24 seconds 492 msec
