                         Program Version 5.0.3 -  RELEASE  -
|  1> !B3LYP EPR-III Autoaux
|  2> !PAL4
|  3>
|  4> * xyz 0 2
|  5>  C     -9.8112251210    -26.0710509081    -12.9353198087
|  6>  H     -9.3734144365    -25.4461703289    -12.2145182849
|  7>  H    -10.8286177417    -25.7987067117    -13.3791582382
|  8>  H     -9.4299869386    -27.0801150074    -13.2739153840
|  9> *
| 10>
| 11> %EPRNMR
| 12>         GTENSOR   TRUE
| 13>         NUCLEI    = ALL H {AISO, ADIP, AORB}
| 14>         NUCLEI    = ALL C {AISO, ADIP, AORB}
| 15> END
| 16>
| 17>
| 18>                          ****END OF INPUT****

CARTESIAN COORDINATES (ANGSTROEM)
---------------------------------
  C     -9.811225  -26.071051  -12.935320
  H     -9.373414  -25.446170  -12.214518
  H    -10.828618  -25.798707  -13.379158
  H     -9.429987  -27.080115  -13.273915

 Total Charge           Charge          ....    0
 Multiplicity           Mult            ....    2
 Number of Electrons    NEL             ....    9
 Basis Dimension        Dim             ....   73

ORBITAL ENERGIES
----------------
                 SPIN UP ORBITALS
  NO   OCC          E(Eh)            E(eV)
   0   1.0000     -10.192508      -277.3522
   1   1.0000      -0.681221       -18.5370
   2   1.0000      -0.433688       -11.8013
   3   1.0000      -0.400144       -10.8885
   4   1.0000      -0.235350        -6.4042
   5   0.0000      -0.000088        -0.0024
   6   0.0000       0.035096         0.9550
   7   0.0000       0.038120         1.0373
   8   0.0000       0.047319         1.2876
   9   0.0000       0.082784         2.2527

                 SPIN DOWN ORBITALS
  NO   OCC          E(Eh)            E(eV)
   0   1.0000     -10.177897      -276.9546
   1   1.0000      -0.641464       -17.4551
   2   1.0000      -0.424341       -11.5469
   3   1.0000      -0.391094       -10.6422
   4   0.0000      -0.077357        -2.1050
   5   0.0000       0.003327         0.0905
   6   0.0000       0.034792         0.9467
   7   0.0000       0.037809         1.0288
   8   0.0000       0.060625         1.6497

MULLIKEN ATOMIC CHARGES AND SPIN POPULATIONS
--------------------------------------------
   0 C :   -0.427510    1.108060
   1 H :    0.151696   -0.031472
   2 H :    0.133728   -0.038778
   3 H :    0.142087   -0.037810
Sum of atomic charges         :   -0.0000000

LOEWDIN ATOMIC CHARGES AND SPIN POPULATIONS
-------------------------------------------
   0 C :   -0.170903    0.919116
   1 H :    0.030364    0.036400
   2 H :    0.071844    0.021440
   3 H :    0.068695    0.023044

  Mayer bond orders larger than 0.100000
B(  0-C ,  1-H ) :   0.9732 B(  0-C ,  2-H ) :   0.9751 B(  0-C ,  3-H ) :   0.9734

FINAL SINGLE POINT ENERGY       -39.823404021340

DIPOLE MOMENT
-------------
                                X             Y             Z
Electronic contribution:      0.13301       0.07128       0.06605
Nuclear contribution   :     -0.14865      -0.08382      -0.04619
                        -----------------------------------------
Total Dipole Moment    :     -0.01565      -0.01254       0.01986
                        -----------------------------------------
Magnitude (a.u.)       :      0.02822
Magnitude (Debye)      :      0.07173

Rotational constants in cm-1:     9.395485     8.778089     4.544910
Rotational constants in MHz : 281669.553836 263160.482978 136252.962961

                             ****ORCA TERMINATED NORMALLY****
TOTAL RUN TIME: 0 days 0 hours 0 minutes 25 seconds 843 msec
