                         Program Version 5.0.3 -  RELEASE  -
|  1> !B3LYP EPR-III Autoaux
|  2> !PAL4
|  3>
|  4> * xyz 0 2
|  5>  C     12.6022894301     -0.6266926546     -7.1846322451
|  6>  H     12.3092559322     -1.4837953326     -6.4853588307
|  7>  H     13.1769622509      0.2068786471     -6.7587485437
|  8>  H     12.0584043831     -0.4595369654     -8.0963961825
|  9> *
| 10>
| 11> %EPRNMR
| 12>         GTENSOR   TRUE
| 13>         NUCLEI    = ALL H {AISO, ADIP, AORB}
| 14>         NUCLEI    = ALL C {AISO, ADIP, AORB}
| 15> END
| 16>
| 17>
| 18>                          ****END OF INPUT****

CARTESIAN COORDINATES (ANGSTROEM)
---------------------------------
  C     12.602289   -0.626693   -7.184632
  H     12.309256   -1.483795   -6.485359
  H     13.176962    0.206879   -6.758749
  H     12.058404   -0.459537   -8.096396

 Total Charge           Charge          ....    0
 Multiplicity           Mult            ....    2
 Number of Electrons    NEL             ....    9
 Basis Dimension        Dim             ....   73

ORBITAL ENERGIES
----------------
                 SPIN UP ORBITALS
  NO   OCC          E(Eh)            E(eV)
   0   1.0000     -10.192562      -277.3537
   1   1.0000      -0.681849       -18.5541
   2   1.0000      -0.421755       -11.4765
   3   1.0000      -0.410778       -11.1778
   4   1.0000      -0.238396        -6.4871
   5   0.0000      -0.000123        -0.0033
   6   0.0000       0.036600         0.9959
   7   0.0000       0.037240         1.0134
   8   0.0000       0.047169         1.2835
   9   0.0000       0.084426         2.2974

                 SPIN DOWN ORBITALS
  NO   OCC          E(Eh)            E(eV)
   0   1.0000     -10.177942      -276.9559
   1   1.0000      -0.642786       -17.4911
   2   1.0000      -0.412153       -11.2152
   3   1.0000      -0.401538       -10.9264
   4   0.0000      -0.079209        -2.1554
   5   0.0000       0.003121         0.0849
   6   0.0000       0.036269         0.9869
   7   0.0000       0.036926         1.0048
   8   0.0000       0.060327         1.6416

MULLIKEN ATOMIC CHARGES AND SPIN POPULATIONS
--------------------------------------------
   0 C :   -0.421175    1.099534
   1 H :    0.137776   -0.035367
   2 H :    0.139682   -0.032925
   3 H :    0.143717   -0.031241
Sum of atomic charges         :    0.0000000

LOEWDIN ATOMIC CHARGES AND SPIN POPULATIONS
-------------------------------------------
   0 C :   -0.170754    0.917199
   1 H :    0.074010    0.021685
   2 H :    0.053869    0.028673
   3 H :    0.042875    0.032442

  Mayer bond orders larger than 0.100000
B(  0-C ,  1-H ) :   0.9742 B(  0-C ,  2-H ) :   0.9746 B(  0-C ,  3-H ) :   0.9741

FINAL SINGLE POINT ENERGY       -39.825549586104

DIPOLE MOMENT
-------------
                                X             Y             Z
Electronic contribution:      0.12271      -0.05590      -0.12371
Nuclear contribution   :     -0.19655       0.10764       0.15993
                        -----------------------------------------
Total Dipole Moment    :     -0.07384       0.05175       0.03622
                        -----------------------------------------
Magnitude (a.u.)       :      0.09717
Magnitude (Debye)      :      0.24698

Rotational constants in cm-1:     9.410389     8.713051     4.610484
Rotational constants in MHz : 282116.359741 261210.709426 138218.833240

                             ****ORCA TERMINATED NORMALLY****
TOTAL RUN TIME: 0 days 0 hours 0 minutes 21 seconds 729 msec
