                         Program Version 5.0.3 -  RELEASE  -
|  1> !B3LYP EPR-III Autoaux
|  2> !PAL4
|  3>
|  4> * xyz 0 2
|  5>  C     -0.6545482372    -15.6650516680    -10.5773131372
|  6>  H     -0.9663605901    -14.6309594355    -10.9358140266
|  7>  H     -1.2256685820    -16.0091217885     -9.7064637444
|  8>  H      0.1975580706    -16.2628316637    -10.8837686554
|  9> *
| 10>
| 11> %EPRNMR
| 12>         GTENSOR   TRUE
| 13>         NUCLEI    = ALL H {AISO, ADIP, AORB}
| 14>         NUCLEI    = ALL C {AISO, ADIP, AORB}
| 15> END
| 16>
| 17>
| 18>                          ****END OF INPUT****

CARTESIAN COORDINATES (ANGSTROEM)
---------------------------------
  C     -0.654548  -15.665052  -10.577313
  H     -0.966361  -14.630959  -10.935814
  H     -1.225669  -16.009122   -9.706464
  H      0.197558  -16.262832  -10.883769

 Total Charge           Charge          ....    0
 Multiplicity           Mult            ....    2
 Number of Electrons    NEL             ....    9
 Basis Dimension        Dim             ....   73

ORBITAL ENERGIES
----------------
                 SPIN UP ORBITALS
  NO   OCC          E(Eh)            E(eV)
   0   1.0000     -10.192192      -277.3436
   1   1.0000      -0.681153       -18.5351
   2   1.0000      -0.429413       -11.6849
   3   1.0000      -0.403787       -10.9876
   4   1.0000      -0.235516        -6.4087
   5   0.0000      -0.000102        -0.0028
   6   0.0000       0.035109         0.9554
   7   0.0000       0.038217         1.0399
   8   0.0000       0.047332         1.2880
   9   0.0000       0.080086         2.1792

                 SPIN DOWN ORBITALS
  NO   OCC          E(Eh)            E(eV)
   0   1.0000     -10.177587      -276.9462
   1   1.0000      -0.641553       -17.4575
   2   1.0000      -0.420347       -11.4382
   3   1.0000      -0.394328       -10.7302
   4   0.0000      -0.077469        -2.1080
   5   0.0000       0.003295         0.0897
   6   0.0000       0.034823         0.9476
   7   0.0000       0.037864         1.0303
   8   0.0000       0.060633         1.6499

MULLIKEN ATOMIC CHARGES AND SPIN POPULATIONS
--------------------------------------------
   0 C :   -0.428007    1.107353
   1 H :    0.143206   -0.037979
   2 H :    0.135489   -0.035674
   3 H :    0.149311   -0.033700
Sum of atomic charges         :    0.0000000

LOEWDIN ATOMIC CHARGES AND SPIN POPULATIONS
-------------------------------------------
   0 C :   -0.173200    0.918958
   1 H :    0.072482    0.021876
   2 H :    0.051583    0.028832
   3 H :    0.049135    0.030334

  Mayer bond orders larger than 0.100000
B(  0-C ,  1-H ) :   0.9732 B(  0-C ,  2-H ) :   0.9754 B(  0-C ,  3-H ) :   0.9730

FINAL SINGLE POINT ENERGY       -39.824724081344

DIPOLE MOMENT
-------------
                                X             Y             Z
Electronic contribution:      0.04109      -0.05618      -0.11386
Nuclear contribution   :     -0.02310       0.06913       0.15431
                        -----------------------------------------
Total Dipole Moment    :      0.01798       0.01296       0.04045
                        -----------------------------------------
Magnitude (a.u.)       :      0.04613
Magnitude (Debye)      :      0.11724

Rotational constants in cm-1:    10.076928     8.284399     4.562540
Rotational constants in MHz : 302098.688393 248360.021764 136781.498219

                             ****ORCA TERMINATED NORMALLY****
TOTAL RUN TIME: 0 days 0 hours 0 minutes 22 seconds 56 msec
