                         Program Version 5.0.3 -  RELEASE  -
|  1> !B3LYP EPR-III Autoaux
|  2> !PAL4
|  3>
|  4> * xyz 0 2
|  5>  C    -51.0401782900    -72.3512783935    -23.4242361657
|  6>  H    -50.6127369143    -71.3807597042    -23.3880441337
|  7>  H    -52.0963364631    -72.5716033853    -23.3503568724
|  8>  H    -50.3225117213    -73.1099047253    -23.4574886204
|  9> *
| 10>
| 11> %EPRNMR
| 12>         GTENSOR   TRUE
| 13>         NUCLEI    = ALL H {AISO, ADIP, AORB}
| 14>         NUCLEI    = ALL C {AISO, ADIP, AORB}
| 15> END
| 16>
| 17>
| 18>                          ****END OF INPUT****

CARTESIAN COORDINATES (ANGSTROEM)
---------------------------------
  C    -51.040178  -72.351278  -23.424236
  H    -50.612737  -71.380760  -23.388044
  H    -52.096336  -72.571603  -23.350357
  H    -50.322512  -73.109905  -23.457489

 Total Charge           Charge          ....    0
 Multiplicity           Mult            ....    2
 Number of Electrons    NEL             ....    9
 Basis Dimension        Dim             ....   73

ORBITAL ENERGIES
----------------
                 SPIN UP ORBITALS
  NO   OCC          E(Eh)            E(eV)
   0   1.0000     -10.178649      -276.9751
   1   1.0000      -0.692827       -18.8528
   2   1.0000      -0.434465       -11.8224
   3   1.0000      -0.418175       -11.3791
   4   1.0000      -0.234776        -6.3886
   5   0.0000       0.001494         0.0407
   6   0.0000       0.035760         0.9731
   7   0.0000       0.037866         1.0304
   8   0.0000       0.047585         1.2949
   9   0.0000       0.089815         2.4440

                 SPIN DOWN ORBITALS
  NO   OCC          E(Eh)            E(eV)
   0   1.0000     -10.164318      -276.5851
   1   1.0000      -0.653659       -17.7870
   2   1.0000      -0.425041       -11.5659
   3   1.0000      -0.408222       -11.1083
   4   0.0000      -0.077540        -2.1100
   5   0.0000       0.004473         0.1217
   6   0.0000       0.035379         0.9627
   7   0.0000       0.037415         1.0181
   8   0.0000       0.060793         1.6543

MULLIKEN ATOMIC CHARGES AND SPIN POPULATIONS
--------------------------------------------
   0 C :   -0.428221    1.099848
   1 H :    0.141551   -0.033531
   2 H :    0.146385   -0.033643
   3 H :    0.140285   -0.032674
Sum of atomic charges         :   -0.0000000

LOEWDIN ATOMIC CHARGES AND SPIN POPULATIONS
-------------------------------------------
   0 C :   -0.134127    0.899435
   1 H :    0.044060    0.033772
   2 H :    0.055165    0.030104
   3 H :    0.034903    0.036688

  Mayer bond orders larger than 0.100000
B(  0-C ,  1-H ) :   0.9804 B(  0-C ,  2-H ) :   0.9788 B(  0-C ,  3-H ) :   0.9805

FINAL SINGLE POINT ENERGY       -39.826572286939

DIPOLE MOMENT
-------------
                                X             Y             Z
Electronic contribution:     -0.05243       0.00192      -0.03491
Nuclear contribution   :      0.06667      -0.00632       0.05757
                        -----------------------------------------
Total Dipole Moment    :      0.01424      -0.00440       0.02267
                        -----------------------------------------
Magnitude (a.u.)       :      0.02713
Magnitude (Debye)      :      0.06895

Rotational constants in cm-1:    10.905168     9.018853     4.941507
Rotational constants in MHz : 326928.721896 270378.411816 148142.662627

                             ****ORCA TERMINATED NORMALLY****
TOTAL RUN TIME: 0 days 0 hours 0 minutes 19 seconds 462 msec
