                         Program Version 5.0.3 -  RELEASE  -
|  1> !B3LYP EPR-III Autoaux
|  2> !PAL4
|  3>
|  4> * xyz 0 2
|  5>  C    -13.4317686483    -30.1356481757    -13.8692209553
|  6>  H    -12.4860214672    -29.7870263909    -14.4531513169
|  7>  H    -14.2619328784    -29.5750608569    -13.5618757326
|  8>  H    -13.2276834828    -31.1168909353    -13.4824959261
|  9> *
| 10>
| 11> %EPRNMR
| 12>         GTENSOR   TRUE
| 13>         NUCLEI    = ALL H {AISO, ADIP, AORB}
| 14>         NUCLEI    = ALL C {AISO, ADIP, AORB}
| 15> END
| 16>
| 17>
| 18>                          ****END OF INPUT****

CARTESIAN COORDINATES (ANGSTROEM)
---------------------------------
  C    -13.431769  -30.135648  -13.869221
  H    -12.486021  -29.787026  -14.453151
  H    -14.261933  -29.575061  -13.561876
  H    -13.227683  -31.116891  -13.482496

 Total Charge           Charge          ....    0
 Multiplicity           Mult            ....    2
 Number of Electrons    NEL             ....    9
 Basis Dimension        Dim             ....   73

ORBITAL ENERGIES
----------------
                 SPIN UP ORBITALS
  NO   OCC          E(Eh)            E(eV)
   0   1.0000     -10.189049      -277.2581
   1   1.0000      -0.685544       -18.6546
   2   1.0000      -0.441756       -12.0208
   3   1.0000      -0.395646       -10.7661
   4   1.0000      -0.236416        -6.4332
   5   0.0000       0.000103         0.0028
   6   0.0000       0.034280         0.9328
   7   0.0000       0.038963         1.0603
   8   0.0000       0.047331         1.2879
   9   0.0000       0.078382         2.1329

                 SPIN DOWN ORBITALS
  NO   OCC          E(Eh)            E(eV)
   0   1.0000     -10.174476      -276.8616
   1   1.0000      -0.646172       -17.5832
   2   1.0000      -0.432357       -11.7650
   3   1.0000      -0.386178       -10.5084
   4   0.0000      -0.078119        -2.1257
   5   0.0000       0.003378         0.0919
   6   0.0000       0.034002         0.9252
   7   0.0000       0.038623         1.0510
   8   0.0000       0.060553         1.6477

MULLIKEN ATOMIC CHARGES AND SPIN POPULATIONS
--------------------------------------------
   0 C :   -0.428702    1.104811
   1 H :    0.136478   -0.040275
   2 H :    0.154171   -0.030027
   3 H :    0.138053   -0.034509
Sum of atomic charges         :   -0.0000000

LOEWDIN ATOMIC CHARGES AND SPIN POPULATIONS
-------------------------------------------
   0 C :   -0.160453    0.913595
   1 H :    0.084268    0.017780
   2 H :    0.032788    0.036404
   3 H :    0.043397    0.032220

  Mayer bond orders larger than 0.100000
B(  0-C ,  1-H ) :   0.9762 B(  0-C ,  2-H ) :   0.9750 B(  0-C ,  3-H ) :   0.9768

FINAL SINGLE POINT ENERGY       -39.820655997004

DIPOLE MOMENT
-------------
                                X             Y             Z
Electronic contribution:     -0.21028       0.05087      -0.02591
Nuclear contribution   :      0.23958      -0.05399       0.08255
                        -----------------------------------------
Total Dipole Moment    :      0.02931      -0.00311       0.05664
                        -----------------------------------------
Magnitude (a.u.)       :      0.06385
Magnitude (Debye)      :      0.16228

Rotational constants in cm-1:    10.587764     8.226195     4.659491
Rotational constants in MHz : 317413.190659 246615.114837 139688.031014

                             ****ORCA TERMINATED NORMALLY****
TOTAL RUN TIME: 0 days 0 hours 0 minutes 22 seconds 865 msec
