                         Program Version 5.0.3 -  RELEASE  -
|  1> !B3LYP EPR-III Autoaux
|  2> !PAL4
|  3>
|  4> * xyz 0 2
|  5>  C    -33.7653667991    -53.0308658294    -19.0709856698
|  6>  H    -34.0305443164    -54.0152778467    -19.0231344546
|  7>  H    -32.6653292028    -52.8836870118    -19.2380087088
|  8>  H    -34.5141835832    -52.3094941194    -18.8933641717
|  9> *
| 10>
| 11> %EPRNMR
| 12>         GTENSOR   TRUE
| 13>         NUCLEI    = ALL H {AISO, ADIP, AORB}
| 14>         NUCLEI    = ALL C {AISO, ADIP, AORB}
| 15> END
| 16>
| 17>
| 18>                          ****END OF INPUT****

CARTESIAN COORDINATES (ANGSTROEM)
---------------------------------
  C    -33.765367  -53.030866  -19.070986
  H    -34.030544  -54.015278  -19.023134
  H    -32.665329  -52.883687  -19.238009
  H    -34.514184  -52.309494  -18.893364

 Total Charge           Charge          ....    0
 Multiplicity           Mult            ....    2
 Number of Electrons    NEL             ....    9
 Basis Dimension        Dim             ....   73

ORBITAL ENERGIES
----------------
                 SPIN UP ORBITALS
  NO   OCC          E(Eh)            E(eV)
   0   1.0000     -10.179521      -276.9989
   1   1.0000      -0.693059       -18.8591
   2   1.0000      -0.436925       -11.8893
   3   1.0000      -0.413609       -11.2549
   4   1.0000      -0.234869        -6.3911
   5   0.0000       0.001187         0.0323
   6   0.0000       0.035286         0.9602
   7   0.0000       0.038194         1.0393
   8   0.0000       0.047552         1.2939
   9   0.0000       0.083539         2.2732

                 SPIN DOWN ORBITALS
  NO   OCC          E(Eh)            E(eV)
   0   1.0000     -10.165159      -276.6080
   1   1.0000      -0.653903       -17.7936
   2   1.0000      -0.427455       -11.6317
   3   1.0000      -0.403683       -10.9848
   4   0.0000      -0.077534        -2.1098
   5   0.0000       0.004225         0.1150
   6   0.0000       0.034928         0.9504
   7   0.0000       0.037767         1.0277
   8   0.0000       0.060762         1.6534

MULLIKEN ATOMIC CHARGES AND SPIN POPULATIONS
--------------------------------------------
   0 C :   -0.430320    1.101262
   1 H :    0.140804   -0.031582
   2 H :    0.140883   -0.037513
   3 H :    0.148633   -0.032167
Sum of atomic charges         :    0.0000000

LOEWDIN ATOMIC CHARGES AND SPIN POPULATIONS
-------------------------------------------
   0 C :   -0.135249    0.900624
   1 H :    0.020438    0.041099
   2 H :    0.073070    0.023659
   3 H :    0.041741    0.034618

  Mayer bond orders larger than 0.100000
B(  0-C ,  1-H ) :   0.9798 B(  0-C ,  2-H ) :   0.9791 B(  0-C ,  3-H ) :   0.9794

FINAL SINGLE POINT ENERGY       -39.822725627530

DIPOLE MOMENT
-------------
                                X             Y             Z
Electronic contribution:     -0.06971       0.06106      -0.02136
Nuclear contribution   :      0.06449      -0.08684       0.04381
                        -----------------------------------------
Total Dipole Moment    :     -0.00522      -0.02578       0.02245
                        -----------------------------------------
Magnitude (a.u.)       :      0.03458
Magnitude (Debye)      :      0.08790

Rotational constants in cm-1:    11.330761     8.629927     4.903163
Rotational constants in MHz : 339687.672634 258718.693690 146993.140332

                             ****ORCA TERMINATED NORMALLY****
TOTAL RUN TIME: 0 days 0 hours 0 minutes 18 seconds 714 msec
