                         Program Version 5.0.3 -  RELEASE  -
|  1> !B3LYP EPR-III Autoaux
|  2> !PAL4
|  3>
|  4> * xyz 0 2
|  5>  C     -8.1493550613    -24.1913784082    -12.4878238215
|  6>  H     -8.7467043530    -24.8392448670    -12.9963642767
|  7>  H     -7.1380188562    -23.9155453748    -12.9917488767
|  8>  H     -8.4042681992    -23.5019986340    -11.6569466363
|  9> *
| 10>
| 11> %EPRNMR
| 12>         GTENSOR   TRUE
| 13>         NUCLEI    = ALL H {AISO, ADIP, AORB}
| 14>         NUCLEI    = ALL C {AISO, ADIP, AORB}
| 15> END
| 16>
| 17>
| 18>                          ****END OF INPUT****

CARTESIAN COORDINATES (ANGSTROEM)
---------------------------------
  C     -8.149355  -24.191378  -12.487824
  H     -8.746704  -24.839245  -12.996364
  H     -7.138019  -23.915545  -12.991749
  H     -8.404268  -23.501999  -11.656947

 Total Charge           Charge          ....    0
 Multiplicity           Mult            ....    2
 Number of Electrons    NEL             ....    9
 Basis Dimension        Dim             ....   73

ORBITAL ENERGIES
----------------
                 SPIN UP ORBITALS
  NO   OCC          E(Eh)            E(eV)
   0   1.0000     -10.189531      -277.2712
   1   1.0000      -0.685776       -18.6609
   2   1.0000      -0.442408       -12.0385
   3   1.0000      -0.395083       -10.7508
   4   1.0000      -0.237351        -6.4586
   5   0.0000       0.000165         0.0045
   6   0.0000       0.034723         0.9448
   7   0.0000       0.038672         1.0523
   8   0.0000       0.047292         1.2869
   9   0.0000       0.081805         2.2260

                 SPIN DOWN ORBITALS
  NO   OCC          E(Eh)            E(eV)
   0   1.0000     -10.174931      -276.8739
   1   1.0000      -0.646442       -17.5906
   2   1.0000      -0.432710       -11.7746
   3   1.0000      -0.385891       -10.5006
   4   0.0000      -0.078631        -2.1397
   5   0.0000       0.003389         0.0922
   6   0.0000       0.034420         0.9366
   7   0.0000       0.038376         1.0443
   8   0.0000       0.060477         1.6457

MULLIKEN ATOMIC CHARGES AND SPIN POPULATIONS
--------------------------------------------
   0 C :   -0.425736    1.102859
   1 H :    0.153926   -0.028611
   2 H :    0.126434   -0.039127
   3 H :    0.145375   -0.035121
Sum of atomic charges         :   -0.0000000

LOEWDIN ATOMIC CHARGES AND SPIN POPULATIONS
-------------------------------------------
   0 C :   -0.157767    0.913263
   1 H :    0.014621    0.041876
   2 H :    0.080697    0.018564
   3 H :    0.062449    0.026297

  Mayer bond orders larger than 0.100000
B(  0-C ,  1-H ) :   0.9753 B(  0-C ,  2-H ) :   0.9781 B(  0-C ,  3-H ) :   0.9750

FINAL SINGLE POINT ENERGY       -39.819633572756

DIPOLE MOMENT
-------------
                                X             Y             Z
Electronic contribution:     -0.14932      -0.18603       0.09355
Nuclear contribution   :      0.11922       0.23784      -0.13610
                        -----------------------------------------
Total Dipole Moment    :     -0.03010       0.05182      -0.04255
                        -----------------------------------------
Magnitude (a.u.)       :      0.07349
Magnitude (Debye)      :      0.18681

Rotational constants in cm-1:     9.560699     8.908586     4.659319
Rotational constants in MHz : 286622.555631 267072.704226 139682.855979

                             ****ORCA TERMINATED NORMALLY****
TOTAL RUN TIME: 0 days 0 hours 0 minutes 25 seconds 117 msec
