                         Program Version 5.0.3 -  RELEASE  -
|  1> !B3LYP EPR-III Autoaux
|  2> !PAL4
|  3>
|  4> * xyz 0 2
|  5>  C    -52.7198294843    -74.2290034103    -23.8431938534
|  6>  H    -53.6791540821    -73.6751127786    -23.7522554907
|  7>  H    -52.5737143758    -75.2991807237    -23.9759304447
|  8>  H    -51.7687381475    -73.5907356426    -23.7351747542
|  9> *
| 10>
| 11> %EPRNMR
| 12>         GTENSOR   TRUE
| 13>         NUCLEI    = ALL H {AISO, ADIP, AORB}
| 14>         NUCLEI    = ALL C {AISO, ADIP, AORB}
| 15> END
| 16>
| 17>
| 18>                          ****END OF INPUT****

CARTESIAN COORDINATES (ANGSTROEM)
---------------------------------
  C    -52.719829  -74.229003  -23.843194
  H    -53.679154  -73.675113  -23.752255
  H    -52.573714  -75.299181  -23.975930
  H    -51.768738  -73.590736  -23.735175

 Total Charge           Charge          ....    0
 Multiplicity           Mult            ....    2
 Number of Electrons    NEL             ....    9
 Basis Dimension        Dim             ....   73

ORBITAL ENERGIES
----------------
                 SPIN UP ORBITALS
  NO   OCC          E(Eh)            E(eV)
   0   1.0000     -10.195179      -277.4249
   1   1.0000      -0.678216       -18.4552
   2   1.0000      -0.429802       -11.6955
   3   1.0000      -0.400219       -10.8905
   4   1.0000      -0.235063        -6.3964
   5   0.0000      -0.000429        -0.0117
   6   0.0000       0.035154         0.9566
   7   0.0000       0.038018         1.0345
   8   0.0000       0.047290         1.2868
   9   0.0000       0.082356         2.2410

                 SPIN DOWN ORBITALS
  NO   OCC          E(Eh)            E(eV)
   0   1.0000     -10.180524      -277.0261
   1   1.0000      -0.638311       -17.3693
   2   1.0000      -0.420709       -11.4481
   3   1.0000      -0.391152       -10.6438
   4   0.0000      -0.077088        -2.0977
   5   0.0000       0.003100         0.0844
   6   0.0000       0.034857         0.9485
   7   0.0000       0.037712         1.0262
   8   0.0000       0.060643         1.6502

MULLIKEN ATOMIC CHARGES AND SPIN POPULATIONS
--------------------------------------------
   0 C :   -0.427919    1.110358
   1 H :    0.146820   -0.036349
   2 H :    0.148885   -0.034604
   3 H :    0.132213   -0.039405
Sum of atomic charges         :    0.0000000

LOEWDIN ATOMIC CHARGES AND SPIN POPULATIONS
-------------------------------------------
   0 C :   -0.180710    0.923495
   1 H :    0.059395    0.026117
   2 H :    0.048523    0.029938
   3 H :    0.072792    0.020450

  Mayer bond orders larger than 0.100000
B(  0-C ,  1-H ) :   0.9715 B(  0-C ,  2-H ) :   0.9716 B(  0-C ,  3-H ) :   0.9742

FINAL SINGLE POINT ENERGY       -39.824161325343

DIPOLE MOMENT
-------------
                                X             Y             Z
Electronic contribution:     -0.10133      -0.09254      -0.03634
Nuclear contribution   :      0.10334       0.09142       0.04963
                        -----------------------------------------
Total Dipole Moment    :      0.00201      -0.00111       0.01329
                        -----------------------------------------
Magnitude (a.u.)       :      0.01348
Magnitude (Debye)      :      0.03427

Rotational constants in cm-1:     9.367777     8.549833     4.471547
Rotational constants in MHz : 280838.877665 256317.554683 134053.608047

                             ****ORCA TERMINATED NORMALLY****
TOTAL RUN TIME: 0 days 0 hours 0 minutes 20 seconds 911 msec
