                         Program Version 5.0.3 -  RELEASE  -
|  1> !B3LYP EPR-III Autoaux
|  2> !PAL4
|  3>
|  4> * xyz 0 2
|  5>  C    -73.6069696076    -98.6063238262    -28.8403817087
|  6>  H    -73.9059705486    -97.5681974592    -28.7687466098
|  7>  H    -74.4855166866    -99.2843960369    -28.9512191545
|  8>  H    -72.5768377386    -98.7832150379    -28.8310821074
|  9> *
| 10>
| 11> %EPRNMR
| 12>         GTENSOR   TRUE
| 13>         NUCLEI    = ALL H {AISO, ADIP, AORB}
| 14>         NUCLEI    = ALL C {AISO, ADIP, AORB}
| 15> END
| 16>
| 17>
| 18>                          ****END OF INPUT****

CARTESIAN COORDINATES (ANGSTROEM)
---------------------------------
  C    -73.606970  -98.606324  -28.840382
  H    -73.905971  -97.568197  -28.768747
  H    -74.485517  -99.284396  -28.951219
  H    -72.576838  -98.783215  -28.831082

 Total Charge           Charge          ....    0
 Multiplicity           Mult            ....    2
 Number of Electrons    NEL             ....    9
 Basis Dimension        Dim             ....   73

ORBITAL ENERGIES
----------------
                 SPIN UP ORBITALS
  NO   OCC          E(Eh)            E(eV)
   0   1.0000     -10.184507      -277.1345
   1   1.0000      -0.688374       -18.7316
   2   1.0000      -0.440500       -11.9866
   3   1.0000      -0.403542       -10.9809
   4   1.0000      -0.234923        -6.3926
   5   0.0000       0.000823         0.0224
   6   0.0000       0.034564         0.9405
   7   0.0000       0.038702         1.0531
   8   0.0000       0.047467         1.2916
   9   0.0000       0.081804         2.2260

                 SPIN DOWN ORBITALS
  NO   OCC          E(Eh)            E(eV)
   0   1.0000     -10.170061      -276.7414
   1   1.0000      -0.648998       -17.6601
   2   1.0000      -0.431215       -11.7340
   3   1.0000      -0.393817       -10.7163
   4   0.0000      -0.077444        -2.1073
   5   0.0000       0.003975         0.1082
   6   0.0000       0.034237         0.9316
   7   0.0000       0.038285         1.0418
   8   0.0000       0.060716         1.6522

MULLIKEN ATOMIC CHARGES AND SPIN POPULATIONS
--------------------------------------------
   0 C :   -0.430671    1.104521
   1 H :    0.132469   -0.035425
   2 H :    0.145993   -0.037292
   3 H :    0.152209   -0.031803
Sum of atomic charges         :    0.0000000

LOEWDIN ATOMIC CHARGES AND SPIN POPULATIONS
-------------------------------------------
   0 C :   -0.151004    0.907855
   1 H :    0.049373    0.030838
   2 H :    0.067975    0.024801
   3 H :    0.033655    0.036506

  Mayer bond orders larger than 0.100000
B(  0-C ,  1-H ) :   0.9793 B(  0-C ,  2-H ) :   0.9767 B(  0-C ,  3-H ) :   0.9774

FINAL SINGLE POINT ENERGY       -39.824130789316

DIPOLE MOMENT
-------------
                                X             Y             Z
Electronic contribution:      0.10498      -0.11512       0.01247
Nuclear contribution   :     -0.11049       0.13728      -0.02241
                        -----------------------------------------
Total Dipole Moment    :     -0.00550       0.02216      -0.00995
                        -----------------------------------------
Magnitude (a.u.)       :      0.02490
Magnitude (Debye)      :      0.06330

Rotational constants in cm-1:    10.806879     8.541901     4.772125
Rotational constants in MHz : 323982.086583 256079.757009 143064.719809

                             ****ORCA TERMINATED NORMALLY****
TOTAL RUN TIME: 0 days 0 hours 0 minutes 24 seconds 939 msec
