                         Program Version 5.0.3 -  RELEASE  -
|  1> !B3LYP EPR-III Autoaux
|  2> !PAL4
|  3>
|  4> * xyz 0 2
|  5>  C      0.3555303240    -14.4992469638    -10.3025962743
|  6>  H      0.9010382302    -15.3625583216    -10.1799738810
|  7>  H      0.6953265128    -13.6943440383     -9.5458298880
|  8>  H     -0.3408992952    -14.2179463918    -11.0669012529
|  9> *
| 10>
| 11> %EPRNMR
| 12>         GTENSOR   TRUE
| 13>         NUCLEI    = ALL H {AISO, ADIP, AORB}
| 14>         NUCLEI    = ALL C {AISO, ADIP, AORB}
| 15> END
| 16>
| 17>
| 18>                          ****END OF INPUT****

CARTESIAN COORDINATES (ANGSTROEM)
---------------------------------
  C      0.355530  -14.499247  -10.302596
  H      0.901038  -15.362558  -10.179974
  H      0.695327  -13.694344   -9.545830
  H     -0.340899  -14.217946  -11.066901

 Total Charge           Charge          ....    0
 Multiplicity           Mult            ....    2
 Number of Electrons    NEL             ....    9
 Basis Dimension        Dim             ....   73

ORBITAL ENERGIES
----------------
                 SPIN UP ORBITALS
  NO   OCC          E(Eh)            E(eV)
   0   1.0000     -10.186232      -277.1815
   1   1.0000      -0.688215       -18.7273
   2   1.0000      -0.445489       -12.1224
   3   1.0000      -0.397738       -10.8230
   4   1.0000      -0.235865        -6.4182
   5   0.0000       0.000538         0.0146
   6   0.0000       0.034582         0.9410
   7   0.0000       0.038630         1.0512
   8   0.0000       0.047292         1.2869
   9   0.0000       0.083822         2.2809

                 SPIN DOWN ORBITALS
  NO   OCC          E(Eh)            E(eV)
   0   1.0000     -10.171777      -276.7881
   1   1.0000      -0.648852       -17.6562
   2   1.0000      -0.435895       -11.8613
   3   1.0000      -0.388440       -10.5700
   4   0.0000      -0.078018        -2.1230
   5   0.0000       0.003704         0.1008
   6   0.0000       0.034219         0.9312
   7   0.0000       0.038257         1.0410
   8   0.0000       0.060502         1.6463

MULLIKEN ATOMIC CHARGES AND SPIN POPULATIONS
--------------------------------------------
   0 C :   -0.428832    1.103427
   1 H :    0.150579   -0.031419
   2 H :    0.126524   -0.039390
   3 H :    0.151729   -0.032617
Sum of atomic charges         :    0.0000000

LOEWDIN ATOMIC CHARGES AND SPIN POPULATIONS
-------------------------------------------
   0 C :   -0.149945    0.908775
   1 H :    0.022776    0.039655
   2 H :    0.079934    0.019523
   3 H :    0.047235    0.032047

  Mayer bond orders larger than 0.100000
B(  0-C ,  1-H ) :   0.9770 B(  0-C ,  2-H ) :   0.9795 B(  0-C ,  3-H ) :   0.9759

FINAL SINGLE POINT ENERGY       -39.821322019796

DIPOLE MOMENT
-------------
                                X             Y             Z
Electronic contribution:     -0.10866      -0.16143      -0.10843
Nuclear contribution   :      0.14156       0.16705       0.08625
                        -----------------------------------------
Total Dipole Moment    :      0.03290       0.00562      -0.02218
                        -----------------------------------------
Magnitude (a.u.)       :      0.04007
Magnitude (Debye)      :      0.10186

Rotational constants in cm-1:    10.251270     8.758971     4.736894
Rotational constants in MHz : 307325.342362 262587.345197 142008.509853

                             ****ORCA TERMINATED NORMALLY****
TOTAL RUN TIME: 0 days 0 hours 0 minutes 20 seconds 726 msec
