                         Program Version 5.0.3 -  RELEASE  -
|  1> !B3LYP EPR-III Autoaux
|  2> !PAL4
|  3>
|  4> * xyz 0 2
|  5>  C     10.3055916310     -3.1723997838     -7.7306292601
|  6>  H      9.9472290664     -3.1175879611     -8.6850042835
|  7>  H     10.5916524598     -4.1571759429     -7.4237785177
|  8>  H     10.5476953766     -2.3177887607     -7.1462993769
|  9> *
| 10>
| 11> %EPRNMR
| 12>         GTENSOR   TRUE
| 13>         NUCLEI    = ALL H {AISO, ADIP, AORB}
| 14>         NUCLEI    = ALL C {AISO, ADIP, AORB}
| 15> END
| 16>
| 17>
| 18>                          ****END OF INPUT****

CARTESIAN COORDINATES (ANGSTROEM)
---------------------------------
  C     10.305592   -3.172400   -7.730629
  H      9.947229   -3.117588   -8.685004
  H     10.591652   -4.157176   -7.423779
  H     10.547695   -2.317789   -7.146299

 Total Charge           Charge          ....    0
 Multiplicity           Mult            ....    2
 Number of Electrons    NEL             ....    9
 Basis Dimension        Dim             ....   73

ORBITAL ENERGIES
----------------
                 SPIN UP ORBITALS
  NO   OCC          E(Eh)            E(eV)
   0   1.0000     -10.175342      -276.8851
   1   1.0000      -0.695987       -18.9388
   2   1.0000      -0.437111       -11.8944
   3   1.0000      -0.420289       -11.4366
   4   1.0000      -0.235488        -6.4080
   5   0.0000       0.001764         0.0480
   6   0.0000       0.036075         0.9817
   7   0.0000       0.037744         1.0271
   8   0.0000       0.047624         1.2959
   9   0.0000       0.093506         2.5444

                 SPIN DOWN ORBITALS
  NO   OCC          E(Eh)            E(eV)
   0   1.0000     -10.161052      -276.4963
   1   1.0000      -0.657016       -17.8783
   2   1.0000      -0.427326       -11.6281
   3   1.0000      -0.410417       -11.1680
   4   0.0000      -0.078024        -2.1232
   5   0.0000       0.004631         0.1260
   6   0.0000       0.035668         0.9706
   7   0.0000       0.037294         1.0148
   8   0.0000       0.060774         1.6537

MULLIKEN ATOMIC CHARGES AND SPIN POPULATIONS
--------------------------------------------
   0 C :   -0.426958    1.096349
   1 H :    0.144358   -0.030584
   2 H :    0.137525   -0.033623
   3 H :    0.145075   -0.032141
Sum of atomic charges         :   -0.0000000

LOEWDIN ATOMIC CHARGES AND SPIN POPULATIONS
-------------------------------------------
   0 C :   -0.123043    0.894287
   1 H :    0.024446    0.040533
   2 H :    0.050553    0.032133
   3 H :    0.048044    0.033047

  Mayer bond orders larger than 0.100000
B(  0-C ,  1-H ) :   0.9814 B(  0-C ,  2-H ) :   0.9820 B(  0-C ,  3-H ) :   0.9807

FINAL SINGLE POINT ENERGY       -39.825388531597

DIPOLE MOMENT
-------------
                                X             Y             Z
Electronic contribution:     -0.08396       0.05505       0.01989
Nuclear contribution   :      0.12726      -0.05648      -0.04736
                        -----------------------------------------
Total Dipole Moment    :      0.04330      -0.00142      -0.02747
                        -----------------------------------------
Magnitude (a.u.)       :      0.05130
Magnitude (Debye)      :      0.13040

Rotational constants in cm-1:    10.797908     9.421237     5.055878
Rotational constants in MHz : 323713.138051 282441.567451 151571.400692

                             ****ORCA TERMINATED NORMALLY****
TOTAL RUN TIME: 0 days 0 hours 0 minutes 23 seconds 364 msec
