                         Program Version 5.0.3 -  RELEASE  -
|  1> !B3LYP EPR-III Autoaux
|  2> !PAL4
|  3>
|  4> * xyz 0 2
|  5>  C    -18.8637781418    -36.2539836657    -15.2684641060
|  6>  H    -19.0086518054    -35.2278586302    -15.5979707752
|  7>  H    -19.7051345049    -36.8574105172    -15.0121377875
|  8>  H    -17.8558531196    -36.5614574852    -15.1708343973
|  9> *
| 10>
| 11> %EPRNMR
| 12>         GTENSOR   TRUE
| 13>         NUCLEI    = ALL H {AISO, ADIP, AORB}
| 14>         NUCLEI    = ALL C {AISO, ADIP, AORB}
| 15> END
| 16>
| 17>
| 18>                          ****END OF INPUT****

CARTESIAN COORDINATES (ANGSTROEM)
---------------------------------
  C    -18.863778  -36.253984  -15.268464
  H    -19.008652  -35.227859  -15.597971
  H    -19.705135  -36.857411  -15.012138
  H    -17.855853  -36.561457  -15.170834

 Total Charge           Charge          ....    0
 Multiplicity           Mult            ....    2
 Number of Electrons    NEL             ....    9
 Basis Dimension        Dim             ....   73

ORBITAL ENERGIES
----------------
                 SPIN UP ORBITALS
  NO   OCC          E(Eh)            E(eV)
   0   1.0000     -10.181306      -277.0474
   1   1.0000      -0.690114       -18.7789
   2   1.0000      -0.433794       -11.8041
   3   1.0000      -0.415901       -11.3172
   4   1.0000      -0.234744        -6.3877
   5   0.0000       0.001324         0.0360
   6   0.0000       0.035927         0.9776
   7   0.0000       0.037669         1.0250
   8   0.0000       0.047545         1.2938
   9   0.0000       0.091156         2.4805

                 SPIN DOWN ORBITALS
  NO   OCC          E(Eh)            E(eV)
   0   1.0000     -10.166932      -276.6563
   1   1.0000      -0.650777       -17.7085
   2   1.0000      -0.424266       -11.5449
   3   1.0000      -0.406304       -11.0561
   4   0.0000      -0.077431        -2.1070
   5   0.0000       0.004364         0.1188
   6   0.0000       0.035536         0.9670
   7   0.0000       0.037249         1.0136
   8   0.0000       0.060776         1.6538

MULLIKEN ATOMIC CHARGES AND SPIN POPULATIONS
--------------------------------------------
   0 C :   -0.427024    1.101092
   1 H :    0.137307   -0.035084
   2 H :    0.146130   -0.032959
   3 H :    0.143587   -0.033050
Sum of atomic charges         :    0.0000000

LOEWDIN ATOMIC CHARGES AND SPIN POPULATIONS
-------------------------------------------
   0 C :   -0.141242    0.903159
   1 H :    0.054562    0.029671
   2 H :    0.045783    0.032812
   3 H :    0.040898    0.034358

  Mayer bond orders larger than 0.100000
B(  0-C ,  1-H ) :   0.9794 B(  0-C ,  2-H ) :   0.9782 B(  0-C ,  3-H ) :   0.9789

FINAL SINGLE POINT ENERGY       -39.827977416123

DIPOLE MOMENT
-------------
                                X             Y             Z
Electronic contribution:     -0.01186      -0.07677      -0.00320
Nuclear contribution   :      0.01626       0.08636       0.01832
                        -----------------------------------------
Total Dipole Moment    :      0.00440       0.00959       0.01512
                        -----------------------------------------
Magnitude (a.u.)       :      0.01844
Magnitude (Debye)      :      0.04687

Rotational constants in cm-1:    10.160402     9.320827     4.864098
Rotational constants in MHz : 304601.183139 279431.370791 145821.993954

                             ****ORCA TERMINATED NORMALLY****
TOTAL RUN TIME: 0 days 0 hours 0 minutes 19 seconds 302 msec
