                         Program Version 5.0.3 -  RELEASE  -
|  1> !B3LYP EPR-III Autoaux
|  2> !PAL4
|  3>
|  4> * xyz 0 2
|  5>  C    -56.6405393343    -78.5876942331    -24.8452710174
|  6>  H    -55.5912011313    -78.8658837789    -24.9060035999
|  7>  H    -57.0039469456    -77.5245873138    -24.6983124677
|  8>  H    -57.3574247258    -79.4513226621    -24.9432373674
|  9> *
| 10>
| 11> %EPRNMR
| 12>         GTENSOR   TRUE
| 13>         NUCLEI    = ALL H {AISO, ADIP, AORB}
| 14>         NUCLEI    = ALL C {AISO, ADIP, AORB}
| 15> END
| 16>
| 17>
| 18>                          ****END OF INPUT****

CARTESIAN COORDINATES (ANGSTROEM)
---------------------------------
  C    -56.640539  -78.587694  -24.845271
  H    -55.591201  -78.865884  -24.906004
  H    -57.003947  -77.524587  -24.698312
  H    -57.357425  -79.451323  -24.943237

 Total Charge           Charge          ....    0
 Multiplicity           Mult            ....    2
 Number of Electrons    NEL             ....    9
 Basis Dimension        Dim             ....   73

ORBITAL ENERGIES
----------------
                 SPIN UP ORBITALS
  NO   OCC          E(Eh)            E(eV)
   0   1.0000     -10.194690      -277.4116
   1   1.0000      -0.678365       -18.4592
   2   1.0000      -0.422153       -11.4874
   3   1.0000      -0.408080       -11.1044
   4   1.0000      -0.234818        -6.3897
   5   0.0000      -0.000418        -0.0114
   6   0.0000       0.035721         0.9720
   7   0.0000       0.037525         1.0211
   8   0.0000       0.047316         1.2875
   9   0.0000       0.082734         2.2513

                 SPIN DOWN ORBITALS
  NO   OCC          E(Eh)            E(eV)
   0   1.0000     -10.180048      -277.0132
   1   1.0000      -0.638508       -17.3747
   2   1.0000      -0.413158       -11.2426
   3   1.0000      -0.398863       -10.8536
   4   0.0000      -0.076941        -2.0937
   5   0.0000       0.003118         0.0848
   6   0.0000       0.035448         0.9646
   7   0.0000       0.037186         1.0119
   8   0.0000       0.060681         1.6512

MULLIKEN ATOMIC CHARGES AND SPIN POPULATIONS
--------------------------------------------
   0 C :   -0.427613    1.110128
   1 H :    0.143427   -0.035040
   2 H :    0.146088   -0.037365
   3 H :    0.138098   -0.037722
Sum of atomic charges         :   -0.0000000

LOEWDIN ATOMIC CHARGES AND SPIN POPULATIONS
-------------------------------------------
   0 C :   -0.180471    0.923079
   1 H :    0.046869    0.030293
   2 H :    0.069211    0.022644
   3 H :    0.064392    0.023983

  Mayer bond orders larger than 0.100000
B(  0-C ,  1-H ) :   0.9727 B(  0-C ,  2-H ) :   0.9709 B(  0-C ,  3-H ) :   0.9732

FINAL SINGLE POINT ENERGY       -39.825018129546

DIPOLE MOMENT
-------------
                                X             Y             Z
Electronic contribution:      0.02882       0.05234       0.00720
Nuclear contribution   :     -0.02320      -0.05899      -0.00880
                        -----------------------------------------
Total Dipole Moment    :      0.00562      -0.00665      -0.00160
                        -----------------------------------------
Magnitude (a.u.)       :      0.00885
Magnitude (Debye)      :      0.02250

Rotational constants in cm-1:     9.659072     8.347231     4.477685
Rotational constants in MHz : 289571.707968 250243.695129 134237.627769

                             ****ORCA TERMINATED NORMALLY****
TOTAL RUN TIME: 0 days 0 hours 0 minutes 20 seconds 179 msec
