                         Program Version 5.0.3 -  RELEASE  -
|  1> !B3LYP EPR-III Autoaux
|  2> !PAL4
|  3>
|  4> * xyz 0 2
|  5>  C    -58.4737958174    -80.6453001373    -25.3038655393
|  6>  H    -58.2376181146    -79.5824379628    -25.2194647328
|  7>  H    -59.5420210077    -80.9011428675    -25.3121344226
|  8>  H    -57.5872756867    -81.3213845205    -25.3262159904
|  9> *
| 10>
| 11> %EPRNMR
| 12>         GTENSOR   TRUE
| 13>         NUCLEI    = ALL H {AISO, ADIP, AORB}
| 14>         NUCLEI    = ALL C {AISO, ADIP, AORB}
| 15> END
| 16>
| 17>
| 18>                          ****END OF INPUT****

CARTESIAN COORDINATES (ANGSTROEM)
---------------------------------
  C    -58.473796  -80.645300  -25.303866
  H    -58.237618  -79.582438  -25.219465
  H    -59.542021  -80.901143  -25.312134
  H    -57.587276  -81.321385  -25.326216

 Total Charge           Charge          ....    0
 Multiplicity           Mult            ....    2
 Number of Electrons    NEL             ....    9
 Basis Dimension        Dim             ....   73

ORBITAL ENERGIES
----------------
                 SPIN UP ORBITALS
  NO   OCC          E(Eh)            E(eV)
   0   1.0000     -10.190688      -277.3027
   1   1.0000      -0.682040       -18.5592
   2   1.0000      -0.428817       -11.6687
   3   1.0000      -0.406713       -11.0672
   4   1.0000      -0.234820        -6.3898
   5   0.0000       0.000143         0.0039
   6   0.0000       0.035193         0.9576
   7   0.0000       0.038109         1.0370
   8   0.0000       0.047383         1.2894
   9   0.0000       0.081295         2.2122

                 SPIN DOWN ORBITALS
  NO   OCC          E(Eh)            E(eV)
   0   1.0000     -10.176129      -276.9065
   1   1.0000      -0.642397       -17.4805
   2   1.0000      -0.419849       -11.4247
   3   1.0000      -0.397149       -10.8070
   4   0.0000      -0.077125        -2.0987
   5   0.0000       0.003508         0.0955
   6   0.0000       0.034889         0.9494
   7   0.0000       0.037730         1.0267
   8   0.0000       0.060704         1.6518

MULLIKEN ATOMIC CHARGES AND SPIN POPULATIONS
--------------------------------------------
   0 C :   -0.428880    1.107786
   1 H :    0.135553   -0.035721
   2 H :    0.147546   -0.035368
   3 H :    0.145781   -0.036697
Sum of atomic charges         :   -0.0000000

LOEWDIN ATOMIC CHARGES AND SPIN POPULATIONS
-------------------------------------------
   0 C :   -0.169947    0.917188
   1 H :    0.050096    0.029542
   2 H :    0.056184    0.027980
   3 H :    0.063667    0.025290

  Mayer bond orders larger than 0.100000
B(  0-C ,  1-H ) :   0.9760 B(  0-C ,  2-H ) :   0.9737 B(  0-C ,  3-H ) :   0.9736

FINAL SINGLE POINT ENERGY       -39.825967478173

DIPOLE MOMENT
-------------
                                X             Y             Z
Electronic contribution:     -0.03782      -0.08290      -0.02677
Nuclear contribution   :      0.04083       0.09813       0.04031
                        -----------------------------------------
Total Dipole Moment    :      0.00301       0.01524       0.01353
                        -----------------------------------------
Magnitude (a.u.)       :      0.02060
Magnitude (Debye)      :      0.05236

Rotational constants in cm-1:    10.184569     8.363462     4.593662
Rotational constants in MHz : 305325.709819 250730.293338 137714.514735

                             ****ORCA TERMINATED NORMALLY****
TOTAL RUN TIME: 0 days 0 hours 0 minutes 19 seconds 736 msec
