                         Program Version 5.0.3 -  RELEASE  -
|  1> !B3LYP EPR-III Autoaux
|  2> !PAL4
|  3>
|  4> * xyz 0 2
|  5>  C    -31.7714833306    -50.8136414429    -18.5633259415
|  6>  H    -32.6079939299    -50.1807765045    -18.7057178235
|  7>  H    -31.9608583997    -51.9177022191    -18.6525562037
|  8>  H    -30.8269336825    -50.3000453489    -18.4354613194
|  9> *
| 10>
| 11> %EPRNMR
| 12>         GTENSOR   TRUE
| 13>         NUCLEI    = ALL H {AISO, ADIP, AORB}
| 14>         NUCLEI    = ALL C {AISO, ADIP, AORB}
| 15> END
| 16>
| 17>
| 18>                          ****END OF INPUT****

CARTESIAN COORDINATES (ANGSTROEM)
---------------------------------
  C    -31.771483  -50.813641  -18.563326
  H    -32.607994  -50.180777  -18.705718
  H    -31.960858  -51.917702  -18.652556
  H    -30.826934  -50.300045  -18.435461

 Total Charge           Charge          ....    0
 Multiplicity           Mult            ....    2
 Number of Electrons    NEL             ....    9
 Basis Dimension        Dim             ....   73

ORBITAL ENERGIES
----------------
                 SPIN UP ORBITALS
  NO   OCC          E(Eh)            E(eV)
   0   1.0000     -10.186491      -277.1885
   1   1.0000      -0.686161       -18.6714
   2   1.0000      -0.428449       -11.6587
   3   1.0000      -0.412513       -11.2251
   4   1.0000      -0.234914        -6.3923
   5   0.0000       0.000568         0.0155
   6   0.0000       0.035449         0.9646
   7   0.0000       0.037970         1.0332
   8   0.0000       0.047450         1.2912
   9   0.0000       0.082189         2.2365

                 SPIN DOWN ORBITALS
  NO   OCC          E(Eh)            E(eV)
   0   1.0000     -10.172007      -276.7944
   1   1.0000      -0.646747       -17.5989
   2   1.0000      -0.419387       -11.4121
   3   1.0000      -0.402686       -10.9576
   4   0.0000      -0.077323        -2.1041
   5   0.0000       0.003797         0.1033
   6   0.0000       0.035131         0.9560
   7   0.0000       0.037567         1.0222
   8   0.0000       0.060725         1.6524

MULLIKEN ATOMIC CHARGES AND SPIN POPULATIONS
--------------------------------------------
   0 C :   -0.428686    1.104928
   1 H :    0.138240   -0.033553
   2 H :    0.144550   -0.036979
   3 H :    0.145896   -0.034396
Sum of atomic charges         :   -0.0000000

LOEWDIN ATOMIC CHARGES AND SPIN POPULATIONS
-------------------------------------------
   0 C :   -0.157165    0.910944
   1 H :    0.036369    0.034901
   2 H :    0.069886    0.023727
   3 H :    0.050910    0.030428

  Mayer bond orders larger than 0.100000
B(  0-C ,  1-H ) :   0.9774 B(  0-C ,  2-H ) :   0.9753 B(  0-C ,  3-H ) :   0.9763

FINAL SINGLE POINT ENERGY       -39.825656460796

DIPOLE MOMENT
-------------
                                X             Y             Z
Electronic contribution:      0.05041      -0.01652       0.05053
Nuclear contribution   :     -0.06096       0.03178      -0.07776
                        -----------------------------------------
Total Dipole Moment    :     -0.01055       0.01525      -0.02723
                        -----------------------------------------
Magnitude (a.u.)       :      0.03295
Magnitude (Debye)      :      0.08375

Rotational constants in cm-1:    10.632696     8.430713     4.708131
Rotational constants in MHz : 318760.214613 252746.406459 141146.216159

                             ****ORCA TERMINATED NORMALLY****
TOTAL RUN TIME: 0 days 0 hours 0 minutes 25 seconds 830 msec
