                         Program Version 5.0.3 -  RELEASE  -
|  1> !B3LYP EPR-III Autoaux
|  2> !PAL4
|  3>
|  4> * xyz 0 2
|  5>  C    -92.7874960748   -122.2643295479    -33.2073887047
|  6>  H    -92.0296375934   -123.0945111255    -33.2411635392
|  7>  H    -92.3883058727   -121.2294085637    -33.0998702792
|  8>  H    -93.8427155978   -122.4679933541    -33.2821656661
|  9> *
| 10>
| 11> %EPRNMR
| 12>         GTENSOR   TRUE
| 13>         NUCLEI    = ALL H {AISO, ADIP, AORB}
| 14>         NUCLEI    = ALL C {AISO, ADIP, AORB}
| 15> END
| 16>
| 17>
| 18>                          ****END OF INPUT****

CARTESIAN COORDINATES (ANGSTROEM)
---------------------------------
  C    -92.787496  -122.264330  -33.207389
  H    -92.029638  -123.094511  -33.241164
  H    -92.388306  -121.229409  -33.099870
  H    -93.842716  -122.467993  -33.282166

 Total Charge           Charge          ....    0
 Multiplicity           Mult            ....    2
 Number of Electrons    NEL             ....    9
 Basis Dimension        Dim             ....   73

ORBITAL ENERGIES
----------------
                 SPIN UP ORBITALS
  NO   OCC          E(Eh)            E(eV)
   0   1.0000     -10.191740      -277.3313
   1   1.0000      -0.680841       -18.5266
   2   1.0000      -0.425684       -11.5835
   3   1.0000      -0.409316       -11.1381
   4   1.0000      -0.234796        -6.3891
   5   0.0000       0.000108         0.0030
   6   0.0000       0.035970         0.9788
   7   0.0000       0.037384         1.0173
   8   0.0000       0.047369         1.2890
   9   0.0000       0.086680         2.3587

                 SPIN DOWN ORBITALS
  NO   OCC          E(Eh)            E(eV)
   0   1.0000     -10.177162      -276.9347
   1   1.0000      -0.641066       -17.4443
   2   1.0000      -0.416415       -11.3312
   3   1.0000      -0.400211       -10.8903
   4   0.0000      -0.077059        -2.0969
   5   0.0000       0.003503         0.0953
   6   0.0000       0.035635         0.9697
   7   0.0000       0.037052         1.0082
   8   0.0000       0.060701         1.6518

MULLIKEN ATOMIC CHARGES AND SPIN POPULATIONS
--------------------------------------------
   0 C :   -0.426603    1.107801
   1 H :    0.138900   -0.037401
   2 H :    0.140686   -0.036682
   3 H :    0.147017   -0.033718
Sum of atomic charges         :    0.0000000

LOEWDIN ATOMIC CHARGES AND SPIN POPULATIONS
-------------------------------------------
   0 C :   -0.171169    0.918512
   1 H :    0.065404    0.024118
   2 H :    0.061240    0.025692
   3 H :    0.044526    0.031678

  Mayer bond orders larger than 0.100000
B(  0-C ,  1-H ) :   0.9742 B(  0-C ,  2-H ) :   0.9740 B(  0-C ,  3-H ) :   0.9734

FINAL SINGLE POINT ENERGY       -39.826721132114

DIPOLE MOMENT
-------------
                                X             Y             Z
Electronic contribution:     -0.07621       0.00003      -0.00093
Nuclear contribution   :      0.07632       0.00081      -0.00077
                        -----------------------------------------
Total Dipole Moment    :      0.00011       0.00084      -0.00171
                        -----------------------------------------
Magnitude (a.u.)       :      0.00190
Magnitude (Debye)      :      0.00484

Rotational constants in cm-1:     9.220819     9.026091     4.561235
Rotational constants in MHz : 276433.212077 270595.393104 136742.392487

                             ****ORCA TERMINATED NORMALLY****
TOTAL RUN TIME: 0 days 0 hours 0 minutes 28 seconds 8 msec
