                         Program Version 5.0.3 -  RELEASE  -
|  1> !B3LYP EPR-III Autoaux
|  2> !PAL4
|  3>
|  4> * xyz 0 2
|  5>  C    -16.7578348155    -33.9008327616    -14.7243353316
|  6>  H    -16.2442341677    -34.7437811282    -14.4657461589
|  7>  H    -16.2623633173    -32.9233087481    -14.5450361137
|  8>  H    -17.7054352578    -33.8589766651    -15.2732222161
|  9> *
| 10>
| 11> %EPRNMR
| 12>         GTENSOR   TRUE
| 13>         NUCLEI    = ALL H {AISO, ADIP, AORB}
| 14>         NUCLEI    = ALL C {AISO, ADIP, AORB}
| 15> END
| 16>
| 17>
| 18>                          ****END OF INPUT****

CARTESIAN COORDINATES (ANGSTROEM)
---------------------------------
  C    -16.757835  -33.900833  -14.724335
  H    -16.244234  -34.743781  -14.465746
  H    -16.262363  -32.923309  -14.545036
  H    -17.705435  -33.858977  -15.273222

 Total Charge           Charge          ....    0
 Multiplicity           Mult            ....    2
 Number of Electrons    NEL             ....    9
 Basis Dimension        Dim             ....   73

ORBITAL ENERGIES
----------------
                 SPIN UP ORBITALS
  NO   OCC          E(Eh)            E(eV)
   0   1.0000     -10.182819      -277.0886
   1   1.0000      -0.689752       -18.7691
   2   1.0000      -0.438601       -11.9349
   3   1.0000      -0.408864       -11.1258
   4   1.0000      -0.235273        -6.4021
   5   0.0000       0.001086         0.0296
   6   0.0000       0.035506         0.9662
   7   0.0000       0.038011         1.0343
   8   0.0000       0.047491         1.2923
   9   0.0000       0.087866         2.3910

                 SPIN DOWN ORBITALS
  NO   OCC          E(Eh)            E(eV)
   0   1.0000     -10.168398      -276.6962
   1   1.0000      -0.650413       -17.6986
   2   1.0000      -0.428901       -11.6710
   3   1.0000      -0.399471       -10.8702
   4   0.0000      -0.077658        -2.1132
   5   0.0000       0.004163         0.1133
   6   0.0000       0.035138         0.9561
   7   0.0000       0.037619         1.0237
   8   0.0000       0.060712         1.6521

MULLIKEN ATOMIC CHARGES AND SPIN POPULATIONS
--------------------------------------------
   0 C :   -0.427386    1.101636
   1 H :    0.150416   -0.030043
   2 H :    0.133708   -0.036492
   3 H :    0.143262   -0.035101
Sum of atomic charges         :    0.0000000

LOEWDIN ATOMIC CHARGES AND SPIN POPULATIONS
-------------------------------------------
   0 C :   -0.142935    0.904829
   1 H :    0.019801    0.040990
   2 H :    0.063951    0.026105
   3 H :    0.059183    0.028076

  Mayer bond orders larger than 0.100000
B(  0-C ,  1-H ) :   0.9780 B(  0-C ,  2-H ) :   0.9793 B(  0-C ,  3-H ) :   0.9777

FINAL SINGLE POINT ENERGY       -39.824857071596

DIPOLE MOMENT
-------------
                                X             Y             Z
Electronic contribution:     -0.02693      -0.13137       0.05439
Nuclear contribution   :      0.04607       0.13223      -0.08319
                        -----------------------------------------
Total Dipole Moment    :      0.01914       0.00086      -0.02880
                        -----------------------------------------
Magnitude (a.u.)       :      0.03460
Magnitude (Debye)      :      0.08794

Rotational constants in cm-1:    10.020970     9.254016     4.821845
Rotational constants in MHz : 300421.112507 277428.421473 144555.288486

                             ****ORCA TERMINATED NORMALLY****
TOTAL RUN TIME: 0 days 0 hours 0 minutes 40 seconds 228 msec
