                         Program Version 5.0.3 -  RELEASE  -
|  1> !B3LYP EPR-III Autoaux
|  2> !PAL4
|  3>
|  4> * xyz 0 2
|  5>  C    -16.6536592902    -33.7575246395    -14.7050870187
|  6>  H    -16.2408985411    -34.7732234927    -14.3687659366
|  7>  H    -15.9860959151    -32.9555908936    -14.5431795168
|  8>  H    -17.6142301881    -33.7050710260    -15.1773069454
|  9> *
| 10>
| 11> %EPRNMR
| 12>         GTENSOR   TRUE
| 13>         NUCLEI    = ALL H {AISO, ADIP, AORB}
| 14>         NUCLEI    = ALL C {AISO, ADIP, AORB}
| 15> END
| 16>
| 17>
| 18>                          ****END OF INPUT****

CARTESIAN COORDINATES (ANGSTROEM)
---------------------------------
  C    -16.653659  -33.757525  -14.705087
  H    -16.240899  -34.773223  -14.368766
  H    -15.986096  -32.955591  -14.543180
  H    -17.614230  -33.705071  -15.177307

 Total Charge           Charge          ....    0
 Multiplicity           Mult            ....    2
 Number of Electrons    NEL             ....    9
 Basis Dimension        Dim             ....   73

ORBITAL ENERGIES
----------------
                 SPIN UP ORBITALS
  NO   OCC          E(Eh)            E(eV)
   0   1.0000     -10.187619      -277.2192
   1   1.0000      -0.685351       -18.6494
   2   1.0000      -0.437061       -11.8930
   3   1.0000      -0.403871       -10.9899
   4   1.0000      -0.235031        -6.3955
   5   0.0000       0.000538         0.0146
   6   0.0000       0.035284         0.9601
   7   0.0000       0.038048         1.0353
   8   0.0000       0.047413         1.2902
   9   0.0000       0.084952         2.3117

                 SPIN DOWN ORBITALS
  NO   OCC          E(Eh)            E(eV)
   0   1.0000     -10.173114      -276.8245
   1   1.0000      -0.645754       -17.5719
   2   1.0000      -0.427572       -11.6348
   3   1.0000      -0.394656       -10.7391
   4   0.0000      -0.077368        -2.1053
   5   0.0000       0.003783         0.1029
   6   0.0000       0.034931         0.9505
   7   0.0000       0.037703         1.0260
   8   0.0000       0.060686         1.6513

MULLIKEN ATOMIC CHARGES AND SPIN POPULATIONS
--------------------------------------------
   0 C :   -0.427418    1.105411
   1 H :    0.131808   -0.039171
   2 H :    0.146555   -0.033074
   3 H :    0.149055   -0.033166
Sum of atomic charges         :   -0.0000000

LOEWDIN ATOMIC CHARGES AND SPIN POPULATIONS
-------------------------------------------
   0 C :   -0.157072    0.912043
   1 H :    0.075972    0.020652
   2 H :    0.036021    0.035065
   3 H :    0.045079    0.032241

  Mayer bond orders larger than 0.100000
B(  0-C ,  1-H ) :   0.9774 B(  0-C ,  2-H ) :   0.9760 B(  0-C ,  3-H ) :   0.9753

FINAL SINGLE POINT ENERGY       -39.824959973627

DIPOLE MOMENT
-------------
                                X             Y             Z
Electronic contribution:     -0.07983       0.12490      -0.03113
Nuclear contribution   :      0.08975      -0.12090       0.01949
                        -----------------------------------------
Total Dipole Moment    :      0.00993       0.00400      -0.01164
                        -----------------------------------------
Magnitude (a.u.)       :      0.01581
Magnitude (Debye)      :      0.04018

Rotational constants in cm-1:     9.824343     8.923494     4.677855
Rotational constants in MHz : 294526.393354 267519.618593 140238.563722

                             ****ORCA TERMINATED NORMALLY****
TOTAL RUN TIME: 0 days 0 hours 0 minutes 40 seconds 224 msec
