                         Program Version 5.0.3 -  RELEASE  -
|  1> !B3LYP EPR-III Autoaux
|  2> !PAL4
|  3>
|  4> * xyz 0 2
|  5>  C     -3.1365894423    -18.4921090130    -11.1911403469
|  6>  H     -2.4902181613    -17.6406268423    -10.9236908222
|  7>  H     -3.8605488448    -18.2321164627    -11.8842586450
|  8>  H     -3.0835518448    -19.4835996110    -10.8807163692
|  9> *
| 10>
| 11> %EPRNMR
| 12>         GTENSOR   TRUE
| 13>         NUCLEI    = ALL H {AISO, ADIP, AORB}
| 14>         NUCLEI    = ALL C {AISO, ADIP, AORB}
| 15> END
| 16>
| 17>
| 18>                          ****END OF INPUT****

CARTESIAN COORDINATES (ANGSTROEM)
---------------------------------
  C     -3.136589  -18.492109  -11.191140
  H     -2.490218  -17.640627  -10.923691
  H     -3.860549  -18.232116  -11.884259
  H     -3.083552  -19.483600  -10.880716

 Total Charge           Charge          ....    0
 Multiplicity           Mult            ....    2
 Number of Electrons    NEL             ....    9
 Basis Dimension        Dim             ....   73

ORBITAL ENERGIES
----------------
                 SPIN UP ORBITALS
  NO   OCC          E(Eh)            E(eV)
   0   1.0000     -10.177636      -276.9476
   1   1.0000      -0.694282       -18.8924
   2   1.0000      -0.440902       -11.9976
   3   1.0000      -0.412958       -11.2372
   4   1.0000      -0.234758        -6.3881
   5   0.0000       0.001488         0.0405
   6   0.0000       0.035178         0.9573
   7   0.0000       0.038335         1.0431
   8   0.0000       0.047588         1.2949
   9   0.0000       0.086066         2.3420

                 SPIN DOWN ORBITALS
  NO   OCC          E(Eh)            E(eV)
   0   1.0000     -10.163318      -276.5580
   1   1.0000      -0.655140       -17.8273
   2   1.0000      -0.431380       -11.7385
   3   1.0000      -0.403014       -10.9666
   4   0.0000      -0.077565        -2.1106
   5   0.0000       0.004455         0.1212
   6   0.0000       0.034800         0.9470
   7   0.0000       0.037885         1.0309
   8   0.0000       0.060782         1.6540

MULLIKEN ATOMIC CHARGES AND SPIN POPULATIONS
--------------------------------------------
   0 C :   -0.430185    1.100013
   1 H :    0.141769   -0.036320
   2 H :    0.138531   -0.032477
   3 H :    0.149884   -0.031216
Sum of atomic charges         :   -0.0000000

LOEWDIN ATOMIC CHARGES AND SPIN POPULATIONS
-------------------------------------------
   0 C :   -0.130416    0.897876
   1 H :    0.065224    0.026775
   2 H :    0.030102    0.038367
   3 H :    0.035089    0.036981

  Mayer bond orders larger than 0.100000
B(  0-C ,  1-H ) :   0.9802 B(  0-C ,  2-H ) :   0.9809 B(  0-C ,  3-H ) :   0.9802

FINAL SINGLE POINT ENERGY       -39.824020032500

DIPOLE MOMENT
-------------
                                X             Y             Z
Electronic contribution:      0.01037      -0.08683       0.06137
Nuclear contribution   :     -0.01840       0.08993      -0.08637
                        -----------------------------------------
Total Dipole Moment    :     -0.00803       0.00310      -0.02500
                        -----------------------------------------
Magnitude (a.u.)       :      0.02644
Magnitude (Debye)      :      0.06722

Rotational constants in cm-1:    11.238358     8.899228     4.968080
Rotational constants in MHz : 336917.486360 266792.143679 148939.279793

                             ****ORCA TERMINATED NORMALLY****
TOTAL RUN TIME: 0 days 0 hours 0 minutes 20 seconds 56 msec
