                         Program Version 5.0.3 -  RELEASE  -
|  1> !B3LYP EPR-III Autoaux
|  2> !PAL4
|  3>
|  4> * xyz 0 2
|  5>  C      8.7309899515     -4.9722702230     -8.1233550283
|  6>  H      7.9943258720     -5.7721258371     -8.2164909472
|  7>  H      9.2820343278     -4.7585791804     -8.9828992480
|  8>  H      8.8840059774     -4.4207003897     -7.2303764764
|  9> *
| 10>
| 11> %EPRNMR
| 12>         GTENSOR   TRUE
| 13>         NUCLEI    = ALL H {AISO, ADIP, AORB}
| 14>         NUCLEI    = ALL C {AISO, ADIP, AORB}
| 15> END
| 16>
| 17>
| 18>                          ****END OF INPUT****

CARTESIAN COORDINATES (ANGSTROEM)
---------------------------------
  C      8.730990   -4.972270   -8.123355
  H      7.994326   -5.772126   -8.216491
  H      9.282034   -4.758579   -8.982899
  H      8.884006   -4.420700   -7.230376

 Total Charge           Charge          ....    0
 Multiplicity           Mult            ....    2
 Number of Electrons    NEL             ....    9
 Basis Dimension        Dim             ....   73

ORBITAL ENERGIES
----------------
                 SPIN UP ORBITALS
  NO   OCC          E(Eh)            E(eV)
   0   1.0000     -10.179443      -276.9967
   1   1.0000      -0.691835       -18.8258
   2   1.0000      -0.432776       -11.7764
   3   1.0000      -0.419430       -11.4133
   4   1.0000      -0.234605        -6.3839
   5   0.0000       0.001464         0.0398
   6   0.0000       0.036119         0.9828
   7   0.0000       0.037500         1.0204
   8   0.0000       0.047575         1.2946
   9   0.0000       0.090241         2.4556

                 SPIN DOWN ORBITALS
  NO   OCC          E(Eh)            E(eV)
   0   1.0000     -10.165103      -276.6065
   1   1.0000      -0.652555       -17.7569
   2   1.0000      -0.423183       -11.5154
   3   1.0000      -0.409770       -11.1504
   4   0.0000      -0.077404        -2.1063
   5   0.0000       0.004466         0.1215
   6   0.0000       0.035719         0.9720
   7   0.0000       0.037072         1.0088
   8   0.0000       0.060798         1.6544

MULLIKEN ATOMIC CHARGES AND SPIN POPULATIONS
--------------------------------------------
   0 C :   -0.427420    1.100235
   1 H :    0.139661   -0.035219
   2 H :    0.142025   -0.032358
   3 H :    0.145734   -0.032658
Sum of atomic charges         :   -0.0000000

LOEWDIN ATOMIC CHARGES AND SPIN POPULATIONS
-------------------------------------------
   0 C :   -0.135616    0.900512
   1 H :    0.058207    0.028780
   2 H :    0.033556    0.036978
   3 H :    0.043852    0.033729

  Mayer bond orders larger than 0.100000
B(  0-C ,  1-H ) :   0.9796 B(  0-C ,  2-H ) :   0.9798 B(  0-C ,  3-H ) :   0.9791

FINAL SINGLE POINT ENERGY       -39.827312978123

DIPOLE MOMENT
-------------
                                X             Y             Z
Electronic contribution:      0.02589       0.03049       0.03511
Nuclear contribution   :     -0.02444      -0.02593      -0.04475
                        -----------------------------------------
Total Dipole Moment    :      0.00145       0.00456      -0.00964
                        -----------------------------------------
Magnitude (a.u.)       :      0.01076
Magnitude (Debye)      :      0.02735

Rotational constants in cm-1:    10.419018     9.296936     4.913236
Rotational constants in MHz : 312354.293850 278715.132069 147295.097099

                             ****ORCA TERMINATED NORMALLY****
TOTAL RUN TIME: 0 days 0 hours 0 minutes 20 seconds 493 msec
