                         Program Version 5.0.3 -  RELEASE  -
|  1> !B3LYP EPR-III Autoaux
|  2> !PAL4
|  3>
|  4> * xyz 0 2
|  5>  C    -11.7954996097    -28.3178123035    -13.4565464277
|  6>  H    -12.2930264978    -29.2879733319    -13.6336944108
|  7>  H    -10.9718797520    -28.3214872200    -12.8232447736
|  8>  H    -12.3087632162    -27.4609227127    -13.8233429001
|  9> *
| 10>
| 11> %EPRNMR
| 12>         GTENSOR   TRUE
| 13>         NUCLEI    = ALL H {AISO, ADIP, AORB}
| 14>         NUCLEI    = ALL C {AISO, ADIP, AORB}
| 15> END
| 16>
| 17>
| 18>                          ****END OF INPUT****

CARTESIAN COORDINATES (ANGSTROEM)
---------------------------------
  C    -11.795500  -28.317812  -13.456546
  H    -12.293026  -29.287973  -13.633694
  H    -10.971880  -28.321487  -12.823245
  H    -12.308763  -27.460923  -13.823343

 Total Charge           Charge          ....    0
 Multiplicity           Mult            ....    2
 Number of Electrons    NEL             ....    9
 Basis Dimension        Dim             ....   73

ORBITAL ENERGIES
----------------
                 SPIN UP ORBITALS
  NO   OCC          E(Eh)            E(eV)
   0   1.0000     -10.180976      -277.0384
   1   1.0000      -0.691065       -18.8048
   2   1.0000      -0.439203       -11.9513
   3   1.0000      -0.410773       -11.1777
   4   1.0000      -0.235598        -6.4110
   5   0.0000       0.001305         0.0355
   6   0.0000       0.035607         0.9689
   7   0.0000       0.038051         1.0354
   8   0.0000       0.047523         1.2932
   9   0.0000       0.089414         2.4331

                 SPIN DOWN ORBITALS
  NO   OCC          E(Eh)            E(eV)
   0   1.0000     -10.166587      -276.6469
   1   1.0000      -0.651857       -17.7379
   2   1.0000      -0.429516       -11.6877
   3   1.0000      -0.401214       -10.9176
   4   0.0000      -0.077926        -2.1205
   5   0.0000       0.004304         0.1171
   6   0.0000       0.035220         0.9584
   7   0.0000       0.037643         1.0243
   8   0.0000       0.060715         1.6522

MULLIKEN ATOMIC CHARGES AND SPIN POPULATIONS
--------------------------------------------
   0 C :   -0.426261    1.099610
   1 H :    0.133201   -0.035883
   2 H :    0.147892   -0.030986
   3 H :    0.145168   -0.032741
Sum of atomic charges         :   -0.0000000

LOEWDIN ATOMIC CHARGES AND SPIN POPULATIONS
-------------------------------------------
   0 C :   -0.138700    0.902188
   1 H :    0.062350    0.026996
   2 H :    0.031549    0.037558
   3 H :    0.044801    0.033258

  Mayer bond orders larger than 0.100000
B(  0-C ,  1-H ) :   0.9802 B(  0-C ,  2-H ) :   0.9788 B(  0-C ,  3-H ) :   0.9788

FINAL SINGLE POINT ENERGY       -39.826319153026

DIPOLE MOMENT
-------------
                                X             Y             Z
Electronic contribution:      0.11173       0.08831      -0.02785
Nuclear contribution   :     -0.14028      -0.08765       0.06697
                        -----------------------------------------
Total Dipole Moment    :     -0.02856       0.00066       0.03912
                        -----------------------------------------
Magnitude (a.u.)       :      0.04844
Magnitude (Debye)      :      0.12312

Rotational constants in cm-1:    10.057228     9.433869     4.889469
Rotational constants in MHz : 301508.104217 282820.277082 146582.582012

                             ****ORCA TERMINATED NORMALLY****
TOTAL RUN TIME: 0 days 0 hours 0 minutes 22 seconds 514 msec
