                         Program Version 5.0.3 -  RELEASE  -
|  1> !B3LYP EPR-III Autoaux
|  2> !PAL4
|  3>
|  4> * xyz 0 2
|  5>  C    -14.3356950856    -31.1875283047    -14.0894923802
|  6>  H    -14.6497472725    -30.1993060345    -14.1952490690
|  7>  H    -14.9872969859    -31.9013736189    -14.6845481260
|  8>  H    -13.3911957896    -31.4696093540    -13.5572676885
|  9> *
| 10>
| 11> %EPRNMR
| 12>         GTENSOR   TRUE
| 13>         NUCLEI    = ALL H {AISO, ADIP, AORB}
| 14>         NUCLEI    = ALL C {AISO, ADIP, AORB}
| 15> END
| 16>
| 17>
| 18>                          ****END OF INPUT****

CARTESIAN COORDINATES (ANGSTROEM)
---------------------------------
  C    -14.335695  -31.187528  -14.089492
  H    -14.649747  -30.199306  -14.195249
  H    -14.987297  -31.901374  -14.684548
  H    -13.391196  -31.469609  -13.557268

 Total Charge           Charge          ....    0
 Multiplicity           Mult            ....    2
 Number of Electrons    NEL             ....    9
 Basis Dimension        Dim             ....   73

ORBITAL ENERGIES
----------------
                 SPIN UP ORBITALS
  NO   OCC          E(Eh)            E(eV)
   0   1.0000     -10.189715      -277.2762
   1   1.0000      -0.683883       -18.6094
   2   1.0000      -0.428371       -11.6566
   3   1.0000      -0.407893       -11.0993
   4   1.0000      -0.235265        -6.4019
   5   0.0000       0.000068         0.0019
   6   0.0000       0.035435         0.9642
   7   0.0000       0.037918         1.0318
   8   0.0000       0.047376         1.2892
   9   0.0000       0.081642         2.2216

                 SPIN DOWN ORBITALS
  NO   OCC          E(Eh)            E(eV)
   0   1.0000     -10.175155      -276.8800
   1   1.0000      -0.644385       -17.5346
   2   1.0000      -0.419102       -11.4044
   3   1.0000      -0.398442       -10.8422
   4   0.0000      -0.077386        -2.1058
   5   0.0000       0.003417         0.0930
   6   0.0000       0.035150         0.9565
   7   0.0000       0.037553         1.0219
   8   0.0000       0.060668         1.6509

MULLIKEN ATOMIC CHARGES AND SPIN POPULATIONS
--------------------------------------------
   0 C :   -0.428396    1.106558
   1 H :    0.143847   -0.032444
   2 H :    0.137050   -0.038221
   3 H :    0.147499   -0.035894
Sum of atomic charges         :   -0.0000000

LOEWDIN ATOMIC CHARGES AND SPIN POPULATIONS
-------------------------------------------
   0 C :   -0.164744    0.915381
   1 H :    0.026228    0.037765
   2 H :    0.071387    0.022431
   3 H :    0.067129    0.024423

  Mayer bond orders larger than 0.100000
B(  0-C ,  1-H ) :   0.9753 B(  0-C ,  2-H ) :   0.9758 B(  0-C ,  3-H ) :   0.9732

FINAL SINGLE POINT ENERGY       -39.823389664982

DIPOLE MOMENT
-------------
                                X             Y             Z
Electronic contribution:      0.02791       0.02784       0.09508
Nuclear contribution   :     -0.01586      -0.00577      -0.12635
                        -----------------------------------------
Total Dipole Moment    :      0.01206       0.02206      -0.03128
                        -----------------------------------------
Magnitude (a.u.)       :      0.04013
Magnitude (Debye)      :      0.10200

Rotational constants in cm-1:    10.475420     8.216493     4.615572
Rotational constants in MHz : 314045.183444 246324.267513 138371.360944

                             ****ORCA TERMINATED NORMALLY****
TOTAL RUN TIME: 0 days 0 hours 0 minutes 21 seconds 993 msec
