                         Program Version 5.0.3 -  RELEASE  -
|  1> !B3LYP EPR-III Autoaux
|  2> !PAL4
|  3>
|  4> * xyz 0 2
|  5>  C     -6.7029616215    -22.5248085969    -12.1293357851
|  6>  H     -6.7586507886    -21.6048143976    -12.6166721411
|  7>  H     -7.3719918633    -22.9067165842    -11.4089638424
|  8>  H     -5.7754118849    -23.0780427963    -12.2523879584
|  9> *
| 10>
| 11> %EPRNMR
| 12>         GTENSOR   TRUE
| 13>         NUCLEI    = ALL H {AISO, ADIP, AORB}
| 14>         NUCLEI    = ALL C {AISO, ADIP, AORB}
| 15> END
| 16>
| 17>
| 18>                          ****END OF INPUT****

CARTESIAN COORDINATES (ANGSTROEM)
---------------------------------
  C     -6.702962  -22.524809  -12.129336
  H     -6.758651  -21.604814  -12.616672
  H     -7.371992  -22.906717  -11.408964
  H     -5.775412  -23.078043  -12.252388

 Total Charge           Charge          ....    0
 Multiplicity           Mult            ....    2
 Number of Electrons    NEL             ....    9
 Basis Dimension        Dim             ....   73

ORBITAL ENERGIES
----------------
                 SPIN UP ORBITALS
  NO   OCC          E(Eh)            E(eV)
   0   1.0000     -10.178586      -276.9734
   1   1.0000      -0.693064       -18.8592
   2   1.0000      -0.440416       -11.9843
   3   1.0000      -0.412832       -11.2337
   4   1.0000      -0.235515        -6.4087
   5   0.0000       0.001531         0.0417
   6   0.0000       0.035583         0.9683
   7   0.0000       0.038118         1.0372
   8   0.0000       0.047567         1.2944
   9   0.0000       0.090368         2.4591

                 SPIN DOWN ORBITALS
  NO   OCC          E(Eh)            E(eV)
   0   1.0000     -10.164242      -276.5831
   1   1.0000      -0.653945       -17.7947
   2   1.0000      -0.430730       -11.7208
   3   1.0000      -0.403112       -10.9692
   4   0.0000      -0.077963        -2.1215
   5   0.0000       0.004466         0.1215
   6   0.0000       0.035188         0.9575
   7   0.0000       0.037686         1.0255
   8   0.0000       0.060739         1.6528

MULLIKEN ATOMIC CHARGES AND SPIN POPULATIONS
--------------------------------------------
   0 C :   -0.426769    1.098317
   1 H :    0.147151   -0.031323
   2 H :    0.145890   -0.032141
   3 H :    0.133728   -0.034852
Sum of atomic charges         :    0.0000000

LOEWDIN ATOMIC CHARGES AND SPIN POPULATIONS
-------------------------------------------
   0 C :   -0.132479    0.898845
   1 H :    0.035140    0.036758
   2 H :    0.041565    0.034680
   3 H :    0.055774    0.029717

  Mayer bond orders larger than 0.100000
B(  0-C ,  1-H ) :   0.9799 B(  0-C ,  2-H ) :   0.9799 B(  0-C ,  3-H ) :   0.9812

FINAL SINGLE POINT ENERGY       -39.826387861884

DIPOLE MOMENT
-------------
                                X             Y             Z
Electronic contribution:     -0.12444       0.03069      -0.04778
Nuclear contribution   :      0.15202      -0.01135       0.08243
                        -----------------------------------------
Total Dipole Moment    :      0.02757       0.01934       0.03465
                        -----------------------------------------
Magnitude (a.u.)       :      0.04832
Magnitude (Debye)      :      0.12282

Rotational constants in cm-1:    10.372801     9.435727     4.962527
Rotational constants in MHz : 310968.742049 282875.980819 148772.818861

                             ****ORCA TERMINATED NORMALLY****
TOTAL RUN TIME: 0 days 0 hours 0 minutes 24 seconds 581 msec
