                         Program Version 5.0.3 -  RELEASE  -
|  1> !B3LYP EPR-III Autoaux
|  2> !PAL4
|  3>
|  4> * xyz 0 2
|  5>  C    -70.8566854820    -95.2714523205    -28.2038828648
|  6>  H    -69.8824758433    -95.7869797209    -28.2218088423
|  7>  H    -70.9874492623    -94.0718525132    -28.0574432573
|  8>  H    -71.8541728804    -95.6388939972    -28.2398388152
|  9> *
| 10>
| 11> %EPRNMR
| 12>         GTENSOR   TRUE
| 13>         NUCLEI    = ALL H {AISO, ADIP, AORB}
| 14>         NUCLEI    = ALL C {AISO, ADIP, AORB}
| 15> END
| 16>
| 17>
| 18>                          ****END OF INPUT****

CARTESIAN COORDINATES (ANGSTROEM)
---------------------------------
  C    -70.856685  -95.271452  -28.203883
  H    -69.882476  -95.786980  -28.221809
  H    -70.987449  -94.071853  -28.057443
  H    -71.854173  -95.638894  -28.239839

 Total Charge           Charge          ....    0
 Multiplicity           Mult            ....    2
 Number of Electrons    NEL             ....    9
 Basis Dimension        Dim             ....   73

ORBITAL ENERGIES
----------------
                 SPIN UP ORBITALS
  NO   OCC          E(Eh)            E(eV)
   0   1.0000     -10.198260      -277.5088
   1   1.0000      -0.678329       -18.4583
   2   1.0000      -0.442521       -12.0416
   3   1.0000      -0.382266       -10.4020
   4   1.0000      -0.235891        -6.4189
   5   0.0000      -0.001573        -0.0428
   6   0.0000       0.033366         0.9079
   7   0.0000       0.039203         1.0668
   8   0.0000       0.047141         1.2828
   9   0.0000       0.074384         2.0241

                 SPIN DOWN ORBITALS
  NO   OCC          E(Eh)            E(eV)
   0   1.0000     -10.183500      -277.1071
   1   1.0000      -0.638369       -17.3709
   2   1.0000      -0.433420       -11.7940
   3   1.0000      -0.373261       -10.1570
   4   0.0000      -0.077483        -2.1084
   5   0.0000       0.002181         0.0594
   6   0.0000       0.033154         0.9022
   7   0.0000       0.038985         1.0608
   8   0.0000       0.060477         1.6457

MULLIKEN ATOMIC CHARGES AND SPIN POPULATIONS
--------------------------------------------
   0 C :   -0.431822    1.114540
   1 H :    0.158370   -0.034289
   2 H :    0.123727   -0.045007
   3 H :    0.149725   -0.035243
Sum of atomic charges         :   -0.0000000

LOEWDIN ATOMIC CHARGES AND SPIN POPULATIONS
-------------------------------------------
   0 C :   -0.184723    0.927680
   1 H :    0.056835    0.027363
   2 H :    0.094086    0.010787
   3 H :    0.033802    0.034170

  Mayer bond orders larger than 0.100000
B(  0-C ,  1-H ) :   0.9686 B(  0-C ,  2-H ) :   0.9753 B(  0-C ,  3-H ) :   0.9714

FINAL SINGLE POINT ENERGY       -39.813770307001

DIPOLE MOMENT
-------------
                                X             Y             Z
Electronic contribution:      0.09740      -0.25430      -0.05470
Nuclear contribution   :     -0.11545       0.23731       0.06937
                        -----------------------------------------
Total Dipole Moment    :     -0.01805      -0.01699       0.01467
                        -----------------------------------------
Magnitude (a.u.)       :      0.02880
Magnitude (Debye)      :      0.07321

Rotational constants in cm-1:    10.351321     7.599998     4.384648
Rotational constants in MHz : 310324.793189 227842.216316 131448.440738

                             ****ORCA TERMINATED NORMALLY****
TOTAL RUN TIME: 0 days 0 hours 0 minutes 36 seconds 543 msec
