                         Program Version 5.0.3 -  RELEASE  -
|  1> !B3LYP EPR-III Autoaux
|  2> !PAL4
|  3>
|  4> * xyz 0 2
|  5>  C    -55.9094887879    -77.7586284805    -24.6562239679
|  6>  H    -55.2007279712    -78.5467966221    -24.7436306971
|  7>  H    -55.5111085347    -76.8208669012    -24.5473447885
|  8>  H    -56.9613206126    -78.0558478023    -24.7243600770
|  9> *
| 10>
| 11> %EPRNMR
| 12>         GTENSOR   TRUE
| 13>         NUCLEI    = ALL H {AISO, ADIP, AORB}
| 14>         NUCLEI    = ALL C {AISO, ADIP, AORB}
| 15> END
| 16>
| 17>
| 18>                          ****END OF INPUT****

CARTESIAN COORDINATES (ANGSTROEM)
---------------------------------
  C    -55.909489  -77.758628  -24.656224
  H    -55.200728  -78.546797  -24.743631
  H    -55.511109  -76.820867  -24.547345
  H    -56.961321  -78.055848  -24.724360

 Total Charge           Charge          ....    0
 Multiplicity           Mult            ....    2
 Number of Electrons    NEL             ....    9
 Basis Dimension        Dim             ....   73

ORBITAL ENERGIES
----------------
                 SPIN UP ORBITALS
  NO   OCC          E(Eh)            E(eV)
   0   1.0000     -10.178262      -276.9646
   1   1.0000      -0.693558       -18.8727
   2   1.0000      -0.440016       -11.9734
   3   1.0000      -0.413350       -11.2478
   4   1.0000      -0.234732        -6.3874
   5   0.0000       0.001497         0.0407
   6   0.0000       0.035342         0.9617
   7   0.0000       0.038178         1.0389
   8   0.0000       0.047581         1.2947
   9   0.0000       0.087427         2.3790

                 SPIN DOWN ORBITALS
  NO   OCC          E(Eh)            E(eV)
   0   1.0000     -10.163936      -276.5748
   1   1.0000      -0.654362       -17.8061
   2   1.0000      -0.430434       -11.7127
   3   1.0000      -0.403540       -10.9809
   4   0.0000      -0.077538        -2.1099
   5   0.0000       0.004473         0.1217
   6   0.0000       0.034964         0.9514
   7   0.0000       0.037730         1.0267
   8   0.0000       0.060783         1.6540

MULLIKEN ATOMIC CHARGES AND SPIN POPULATIONS
--------------------------------------------
   0 C :   -0.429296    1.100144
   1 H :    0.135346   -0.033984
   2 H :    0.149417   -0.030832
   3 H :    0.144533   -0.035328
Sum of atomic charges         :   -0.0000000

LOEWDIN ATOMIC CHARGES AND SPIN POPULATIONS
-------------------------------------------
   0 C :   -0.131926    0.898699
   1 H :    0.044510    0.033599
   2 H :    0.025466    0.039883
   3 H :    0.061950    0.027819

  Mayer bond orders larger than 0.100000
B(  0-C ,  1-H ) :   0.9812 B(  0-C ,  2-H ) :   0.9802 B(  0-C ,  3-H ) :   0.9793

FINAL SINGLE POINT ENERGY       -39.824818676158

DIPOLE MOMENT
-------------
                                X             Y             Z
Electronic contribution:     -0.02880       0.10236       0.02545
Nuclear contribution   :      0.04145      -0.11064      -0.03497
                        -----------------------------------------
Total Dipole Moment    :      0.01265      -0.00828      -0.00953
                        -----------------------------------------
Magnitude (a.u.)       :      0.01787
Magnitude (Debye)      :      0.04543

Rotational constants in cm-1:    10.899257     9.066832     4.950191
Rotational constants in MHz : 326751.502519 271816.796169 148403.001508

                             ****ORCA TERMINATED NORMALLY****
TOTAL RUN TIME: 0 days 0 hours 0 minutes 19 seconds 837 msec
