                         Program Version 5.0.3 -  RELEASE  -
|  1> !B3LYP EPR-III Autoaux
|  2> !PAL4
|  3>
|  4> * xyz 0 2
|  5>  C     -3.4811310647    -18.8816035431    -11.2714270508
|  6>  H     -3.6112285466    -17.9610741011    -10.6949545662
|  7>  H     -4.2275762572    -18.9918383734    -12.0830798544
|  8>  H     -2.6276943867    -19.6108355915    -11.2757334545
|  9> *
| 10>
| 11> %EPRNMR
| 12>         GTENSOR   TRUE
| 13>         NUCLEI    = ALL H {AISO, ADIP, AORB}
| 14>         NUCLEI    = ALL C {AISO, ADIP, AORB}
| 15> END
| 16>
| 17>
| 18>                          ****END OF INPUT****

CARTESIAN COORDINATES (ANGSTROEM)
---------------------------------
  C     -3.481131  -18.881604  -11.271427
  H     -3.611229  -17.961074  -10.694955
  H     -4.227576  -18.991838  -12.083080
  H     -2.627694  -19.610836  -11.275733

 Total Charge           Charge          ....    0
 Multiplicity           Mult            ....    2
 Number of Electrons    NEL             ....    9
 Basis Dimension        Dim             ....   73

ORBITAL ENERGIES
----------------
                 SPIN UP ORBITALS
  NO   OCC          E(Eh)            E(eV)
   0   1.0000     -10.192754      -277.3589
   1   1.0000      -0.680682       -18.5223
   2   1.0000      -0.429221       -11.6797
   3   1.0000      -0.402918       -10.9640
   4   1.0000      -0.235789        -6.4161
   5   0.0000      -0.000158        -0.0043
   6   0.0000       0.035037         0.9534
   7   0.0000       0.038319         1.0427
   8   0.0000       0.047316         1.2875
   9   0.0000       0.080221         2.1829

                 SPIN DOWN ORBITALS
  NO   OCC          E(Eh)            E(eV)
   0   1.0000     -10.178134      -276.9611
   1   1.0000      -0.641124       -17.4459
   2   1.0000      -0.420221       -11.4348
   3   1.0000      -0.393386       -10.7046
   4   0.0000      -0.077624        -2.1123
   5   0.0000       0.003240         0.0882
   6   0.0000       0.034760         0.9459
   7   0.0000       0.037959         1.0329
   8   0.0000       0.060609         1.6492

MULLIKEN ATOMIC CHARGES AND SPIN POPULATIONS
--------------------------------------------
   0 C :   -0.427884    1.107090
   1 H :    0.146855   -0.034737
   2 H :    0.133299   -0.036262
   3 H :    0.147731   -0.036091
Sum of atomic charges         :    0.0000000

LOEWDIN ATOMIC CHARGES AND SPIN POPULATIONS
-------------------------------------------
   0 C :   -0.175438    0.919684
   1 H :    0.052738    0.028965
   2 H :    0.056261    0.027072
   3 H :    0.066438    0.024279

  Mayer bond orders larger than 0.100000
B(  0-C ,  1-H ) :   0.9733 B(  0-C ,  2-H ) :   0.9756 B(  0-C ,  3-H ) :   0.9721

FINAL SINGLE POINT ENERGY       -39.824767807676

DIPOLE MOMENT
-------------
                                X             Y             Z
Electronic contribution:      0.03276      -0.03215       0.13704
Nuclear contribution   :     -0.01732       0.06075      -0.17949
                        -----------------------------------------
Total Dipole Moment    :      0.01544       0.02861      -0.04245
                        -----------------------------------------
Magnitude (a.u.)       :      0.05347
Magnitude (Debye)      :      0.13591

Rotational constants in cm-1:    10.100527     8.222177     4.555180
Rotational constants in MHz : 302806.185738 246494.655762 136560.870041

                             ****ORCA TERMINATED NORMALLY****
TOTAL RUN TIME: 0 days 0 hours 0 minutes 26 seconds 297 msec
