                         Program Version 5.0.3 -  RELEASE  -
|  1> !B3LYP EPR-III Autoaux
|  2> !PAL4
|  3>
|  4> * xyz 0 2
|  5>  C    -36.8651836623    -56.5172696665    -19.8501558969
|  6>  H    -36.2807590372    -55.5578029311    -19.8652350514
|  7>  H    -37.8478951366    -56.4228314307    -19.6616116441
|  8>  H    -36.2952143047    -57.4143719605    -20.0175036432
|  9> *
| 10>
| 11> %EPRNMR
| 12>         GTENSOR   TRUE
| 13>         NUCLEI    = ALL H {AISO, ADIP, AORB}
| 14>         NUCLEI    = ALL C {AISO, ADIP, AORB}
| 15> END
| 16>
| 17>
| 18>                          ****END OF INPUT****

CARTESIAN COORDINATES (ANGSTROEM)
---------------------------------
  C    -36.865184  -56.517270  -19.850156
  H    -36.280759  -55.557803  -19.865235
  H    -37.847895  -56.422831  -19.661612
  H    -36.295214  -57.414372  -20.017504

 Total Charge           Charge          ....    0
 Multiplicity           Mult            ....    2
 Number of Electrons    NEL             ....    9
 Basis Dimension        Dim             ....   73

ORBITAL ENERGIES
----------------
                 SPIN UP ORBITALS
  NO   OCC          E(Eh)            E(eV)
   0   1.0000     -10.180553      -277.0269
   1   1.0000      -0.692244       -18.8369
   2   1.0000      -0.445072       -12.1110
   3   1.0000      -0.406000       -11.0478
   4   1.0000      -0.235025        -6.3953
   5   0.0000       0.001256         0.0342
   6   0.0000       0.035116         0.9556
   7   0.0000       0.038295         1.0421
   8   0.0000       0.047518         1.2930
   9   0.0000       0.087597         2.3836

                 SPIN DOWN ORBITALS
  NO   OCC          E(Eh)            E(eV)
   0   1.0000     -10.166175      -276.6357
   1   1.0000      -0.652894       -17.7662
   2   1.0000      -0.435276       -11.8445
   3   1.0000      -0.396594       -10.7919
   4   0.0000      -0.077631        -2.1124
   5   0.0000       0.004288         0.1167
   6   0.0000       0.034737         0.9453
   7   0.0000       0.037895         1.0312
   8   0.0000       0.060722         1.6523

MULLIKEN ATOMIC CHARGES AND SPIN POPULATIONS
--------------------------------------------
   0 C :   -0.428816    1.101396
   1 H :    0.130197   -0.037703
   2 H :    0.152199   -0.029643
   3 H :    0.146420   -0.034050
Sum of atomic charges         :    0.0000000

LOEWDIN ATOMIC CHARGES AND SPIN POPULATIONS
-------------------------------------------
   0 C :   -0.134741    0.901353
   1 H :    0.070580    0.024009
   2 H :    0.012475    0.043578
   3 H :    0.051686    0.031060

  Mayer bond orders larger than 0.100000
B(  0-C ,  1-H ) :   0.9808 B(  0-C ,  2-H ) :   0.9791 B(  0-C ,  3-H ) :   0.9787

FINAL SINGLE POINT ENERGY       -39.822444266757

DIPOLE MOMENT
-------------
                                X             Y             Z
Electronic contribution:     -0.12853      -0.11554       0.00221
Nuclear contribution   :      0.12867       0.11752       0.00458
                        -----------------------------------------
Total Dipole Moment    :      0.00014       0.00198       0.00679
                        -----------------------------------------
Magnitude (a.u.)       :      0.00708
Magnitude (Debye)      :      0.01799

Rotational constants in cm-1:    10.225202     9.336852     4.880820
Rotational constants in MHz : 306543.853026 279911.778285 146323.297138

                             ****ORCA TERMINATED NORMALLY****
TOTAL RUN TIME: 0 days 0 hours 0 minutes 30 seconds 775 msec
