                         Program Version 5.0.3 -  RELEASE  -
|  1> !B3LYP EPR-III Autoaux
|  2> !PAL4
|  3>
|  4> * xyz 0 2
|  5>  C    -22.3608470499    -40.1799735779    -16.1608822199
|  6>  H    -21.5599176140    -40.8320044789    -15.9569522785
|  7>  H    -22.2105671100    -39.0998321526    -16.1999947641
|  8>  H    -23.2712978934    -40.6802657408    -16.4415429964
|  9> *
| 10>
| 11> %EPRNMR
| 12>         GTENSOR   TRUE
| 13>         NUCLEI    = ALL H {AISO, ADIP, AORB}
| 14>         NUCLEI    = ALL C {AISO, ADIP, AORB}
| 15> END
| 16>
| 17>
| 18>                          ****END OF INPUT****

CARTESIAN COORDINATES (ANGSTROEM)
---------------------------------
  C    -22.360847  -40.179974  -16.160882
  H    -21.559918  -40.832004  -15.956952
  H    -22.210567  -39.099832  -16.199995
  H    -23.271298  -40.680266  -16.441543

 Total Charge           Charge          ....    0
 Multiplicity           Mult            ....    2
 Number of Electrons    NEL             ....    9
 Basis Dimension        Dim             ....   73

ORBITAL ENERGIES
----------------
                 SPIN UP ORBITALS
  NO   OCC          E(Eh)            E(eV)
   0   1.0000     -10.182047      -277.0676
   1   1.0000      -0.689761       -18.7693
   2   1.0000      -0.430270       -11.7082
   3   1.0000      -0.417579       -11.3629
   4   1.0000      -0.235049        -6.3960
   5   0.0000       0.001182         0.0322
   6   0.0000       0.035925         0.9776
   7   0.0000       0.037700         1.0259
   8   0.0000       0.047527         1.2933
   9   0.0000       0.088561         2.4099

                 SPIN DOWN ORBITALS
  NO   OCC          E(Eh)            E(eV)
   0   1.0000     -10.167650      -276.6758
   1   1.0000      -0.650507       -17.7012
   2   1.0000      -0.420930       -11.4541
   3   1.0000      -0.407752       -11.0955
   4   0.0000      -0.077562        -2.1106
   5   0.0000       0.004240         0.1154
   6   0.0000       0.035561         0.9677
   7   0.0000       0.037272         1.0142
   8   0.0000       0.060753         1.6532

MULLIKEN ATOMIC CHARGES AND SPIN POPULATIONS
--------------------------------------------
   0 C :   -0.427188    1.101178
   1 H :    0.140582   -0.032867
   2 H :    0.145412   -0.034187
   3 H :    0.141195   -0.034125
Sum of atomic charges         :    0.0000000

LOEWDIN ATOMIC CHARGES AND SPIN POPULATIONS
-------------------------------------------
   0 C :   -0.143850    0.904260
   1 H :    0.036846    0.035517
   2 H :    0.057607    0.028764
   3 H :    0.049397    0.031460

  Mayer bond orders larger than 0.100000
B(  0-C ,  1-H ) :   0.9790 B(  0-C ,  2-H ) :   0.9774 B(  0-C ,  3-H ) :   0.9788

FINAL SINGLE POINT ENERGY       -39.827345142001

DIPOLE MOMENT
-------------
                                X             Y             Z
Electronic contribution:     -0.01581       0.04182       0.05441
Nuclear contribution   :      0.03055      -0.05410      -0.08682
                        -----------------------------------------
Total Dipole Moment    :      0.01474      -0.01228      -0.03241
                        -----------------------------------------
Magnitude (a.u.)       :      0.03766
Magnitude (Debye)      :      0.09572

Rotational constants in cm-1:    10.546063     8.924039     4.845373
Rotational constants in MHz : 316163.024706 267535.949708 145260.634338

                             ****ORCA TERMINATED NORMALLY****
TOTAL RUN TIME: 0 days 0 hours 0 minutes 31 seconds 853 msec
