                         Program Version 5.0.3 -  RELEASE  -
|  1> !B3LYP EPR-III Autoaux
|  2> !PAL4
|  3>
|  4> * xyz 0 2
|  5>  C     -9.9978538993    -26.2635400034    -12.9737070507
|  6>  H     -9.5356006131    -25.5774947247    -12.2457388720
|  7>  H    -10.9503021868    -26.2307757876    -13.3989358849
|  8>  H     -9.2780074416    -26.8917639316    -13.3750558024
|  9> *
| 10>
| 11> %EPRNMR
| 12>         GTENSOR   TRUE
| 13>         NUCLEI    = ALL H {AISO, ADIP, AORB}
| 14>         NUCLEI    = ALL C {AISO, ADIP, AORB}
| 15> END
| 16>
| 17>
| 18>                          ****END OF INPUT****

CARTESIAN COORDINATES (ANGSTROEM)
---------------------------------
  C     -9.997854  -26.263540  -12.973707
  H     -9.535601  -25.577495  -12.245739
  H    -10.950302  -26.230776  -13.398936
  H     -9.278007  -26.891764  -13.375056

 Total Charge           Charge          ....    0
 Multiplicity           Mult            ....    2
 Number of Electrons    NEL             ....    9
 Basis Dimension        Dim             ....   73

ORBITAL ENERGIES
----------------
                 SPIN UP ORBITALS
  NO   OCC          E(Eh)            E(eV)
   0   1.0000     -10.178258      -276.9645
   1   1.0000      -0.694215       -18.8906
   2   1.0000      -0.442657       -12.0453
   3   1.0000      -0.409700       -11.1485
   4   1.0000      -0.235812        -6.4168
   5   0.0000       0.001394         0.0379
   6   0.0000       0.035037         0.9534
   7   0.0000       0.038602         1.0504
   8   0.0000       0.047556         1.2941
   9   0.0000       0.085868         2.3366

                 SPIN DOWN ORBITALS
  NO   OCC          E(Eh)            E(eV)
   0   1.0000     -10.163905      -276.5739
   1   1.0000      -0.655247       -17.8302
   2   1.0000      -0.433083       -11.7848
   3   1.0000      -0.399707       -10.8766
   4   0.0000      -0.078126        -2.1259
   5   0.0000       0.004333         0.1179
   6   0.0000       0.034672         0.9435
   7   0.0000       0.038161         1.0384
   8   0.0000       0.060715         1.6521

MULLIKEN ATOMIC CHARGES AND SPIN POPULATIONS
--------------------------------------------
   0 C :   -0.428755    1.098550
   1 H :    0.140136   -0.035904
   2 H :    0.150519   -0.030438
   3 H :    0.138100   -0.032208
Sum of atomic charges         :    0.0000000

LOEWDIN ATOMIC CHARGES AND SPIN POPULATIONS
-------------------------------------------
   0 C :   -0.131962    0.898438
   1 H :    0.064826    0.026948
   2 H :    0.036787    0.036445
   3 H :    0.030349    0.038169

  Mayer bond orders larger than 0.100000
B(  0-C ,  1-H ) :   0.9806 B(  0-C ,  2-H ) :   0.9799 B(  0-C ,  3-H ) :   0.9809

FINAL SINGLE POINT ENERGY       -39.823509860153

DIPOLE MOMENT
-------------
                                X             Y             Z
Electronic contribution:     -0.13949      -0.04678       0.02799
Nuclear contribution   :      0.17212       0.06789      -0.07391
                        -----------------------------------------
Total Dipole Moment    :      0.03263       0.02111      -0.04591
                        -----------------------------------------
Magnitude (a.u.)       :      0.06016
Magnitude (Debye)      :      0.15290

Rotational constants in cm-1:    11.286132     8.800360     4.973108
Rotational constants in MHz : 338349.739219 263828.156457 149090.017053

                             ****ORCA TERMINATED NORMALLY****
TOTAL RUN TIME: 0 days 0 hours 0 minutes 25 seconds 484 msec
