                         Program Version 5.0.3 -  RELEASE  -
|  1> !B3LYP EPR-III Autoaux
|  2> !PAL4
|  3>
|  4> * xyz 0 2
|  5>  C    -13.8313518250    -30.6234992496    -13.9638348300
|  6>  H    -13.4686160909    -29.7801224504    -14.4048723508
|  7>  H    -14.9407910946    -30.7520122159    -14.1781819109
|  8>  H    -13.2715578098    -31.4424235515    -13.4566204779
|  9> *
| 10>
| 11> %EPRNMR
| 12>         GTENSOR   TRUE
| 13>         NUCLEI    = ALL H {AISO, ADIP, AORB}
| 14>         NUCLEI    = ALL C {AISO, ADIP, AORB}
| 15> END
| 16>
| 17>
| 18>                          ****END OF INPUT****

CARTESIAN COORDINATES (ANGSTROEM)
---------------------------------
  C    -13.831352  -30.623499  -13.963835
  H    -13.468616  -29.780122  -14.404872
  H    -14.940791  -30.752012  -14.178182
  H    -13.271558  -31.442424  -13.456620

 Total Charge           Charge          ....    0
 Multiplicity           Mult            ....    2
 Number of Electrons    NEL             ....    9
 Basis Dimension        Dim             ....   73

ORBITAL ENERGIES
----------------
                 SPIN UP ORBITALS
  NO   OCC          E(Eh)            E(eV)
   0   1.0000     -10.187109      -277.2053
   1   1.0000      -0.687061       -18.6959
   2   1.0000      -0.438180       -11.9235
   3   1.0000      -0.402109       -10.9420
   4   1.0000      -0.235621        -6.4116
   5   0.0000       0.000419         0.0114
   6   0.0000       0.034977         0.9518
   7   0.0000       0.038340         1.0433
   8   0.0000       0.047394         1.2897
   9   0.0000       0.084910         2.3105

                 SPIN DOWN ORBITALS
  NO   OCC          E(Eh)            E(eV)
   0   1.0000     -10.172590      -276.8102
   1   1.0000      -0.647674       -17.6241
   2   1.0000      -0.428608       -11.6630
   3   1.0000      -0.392751       -10.6873
   4   0.0000      -0.077706        -2.1145
   5   0.0000       0.003650         0.0993
   6   0.0000       0.034675         0.9436
   7   0.0000       0.037974         1.0333
   8   0.0000       0.060639         1.6501

MULLIKEN ATOMIC CHARGES AND SPIN POPULATIONS
--------------------------------------------
   0 C :   -0.428756    1.104786
   1 H :    0.150193   -0.030834
   2 H :    0.129912   -0.038430
   3 H :    0.148650   -0.035522
Sum of atomic charges         :   -0.0000000

LOEWDIN ATOMIC CHARGES AND SPIN POPULATIONS
-------------------------------------------
   0 C :   -0.154596    0.910975
   1 H :    0.015638    0.041639
   2 H :    0.072515    0.022215
   3 H :    0.066443    0.025170

  Mayer bond orders larger than 0.100000
B(  0-C ,  1-H ) :   0.9764 B(  0-C ,  2-H ) :   0.9786 B(  0-C ,  3-H ) :   0.9744

FINAL SINGLE POINT ENERGY       -39.821294719035

DIPOLE MOMENT
-------------
                                X             Y             Z
Electronic contribution:      0.14678       0.06820       0.07097
Nuclear contribution   :     -0.14009      -0.07799      -0.11105
                        -----------------------------------------
Total Dipole Moment    :      0.00670      -0.00979      -0.04008
                        -----------------------------------------
Magnitude (a.u.)       :      0.04180
Magnitude (Debye)      :      0.10625

Rotational constants in cm-1:    10.486927     8.454295     4.695119
Rotational constants in MHz : 314390.167499 253453.388920 140756.126121

                             ****ORCA TERMINATED NORMALLY****
TOTAL RUN TIME: 0 days 0 hours 0 minutes 23 seconds 652 msec
