                         Program Version 5.0.3 -  RELEASE  -
|  1> !B3LYP EPR-III Autoaux
|  2> !PAL4
|  3>
|  4> * xyz 0 2
|  5>  C     -9.2066530240    -25.4026318253    -12.7872898434
|  6>  H     -8.2156314553    -25.3622709794    -12.4655261238
|  7>  H     -9.5807278664    -24.5497449069    -13.3153427307
|  8>  H     -9.9733143131    -26.1060675457    -12.4881404891
|  9> *
| 10>
| 11> %EPRNMR
| 12>         GTENSOR   TRUE
| 13>         NUCLEI    = ALL H {AISO, ADIP, AORB}
| 14>         NUCLEI    = ALL C {AISO, ADIP, AORB}
| 15> END
| 16>
| 17>
| 18>                          ****END OF INPUT****

CARTESIAN COORDINATES (ANGSTROEM)
---------------------------------
  C     -9.206653  -25.402632  -12.787290
  H     -8.215631  -25.362271  -12.465526
  H     -9.580728  -24.549745  -13.315343
  H     -9.973314  -26.106068  -12.488140

 Total Charge           Charge          ....    0
 Multiplicity           Mult            ....    2
 Number of Electrons    NEL             ....    9
 Basis Dimension        Dim             ....   73

ORBITAL ENERGIES
----------------
                 SPIN UP ORBITALS
  NO   OCC          E(Eh)            E(eV)
   0   1.0000     -10.179808      -277.0067
   1   1.0000      -0.692199       -18.8357
   2   1.0000      -0.438614       -11.9353
   3   1.0000      -0.412236       -11.2175
   4   1.0000      -0.235918        -6.4197
   5   0.0000       0.001386         0.0377
   6   0.0000       0.035501         0.9660
   7   0.0000       0.038231         1.0403
   8   0.0000       0.047540         1.2936
   9   0.0000       0.088334         2.4037

                 SPIN DOWN ORBITALS
  NO   OCC          E(Eh)            E(eV)
   0   1.0000     -10.165432      -276.6155
   1   1.0000      -0.653151       -17.7731
   2   1.0000      -0.429027       -11.6744
   3   1.0000      -0.402411       -10.9501
   4   0.0000      -0.078132        -2.1261
   5   0.0000       0.004339         0.1181
   6   0.0000       0.035126         0.9558
   7   0.0000       0.037801         1.0286
   8   0.0000       0.060710         1.6520

MULLIKEN ATOMIC CHARGES AND SPIN POPULATIONS
--------------------------------------------
   0 C :   -0.426595    1.098395
   1 H :    0.148195   -0.030836
   2 H :    0.134996   -0.033724
   3 H :    0.143405   -0.033835
Sum of atomic charges         :    0.0000000

LOEWDIN ATOMIC CHARGES AND SPIN POPULATIONS
-------------------------------------------
   0 C :   -0.136575    0.900591
   1 H :    0.034646    0.036803
   2 H :    0.047116    0.032469
   3 H :    0.054813    0.030136

  Mayer bond orders larger than 0.100000
B(  0-C ,  1-H ) :   0.9794 B(  0-C ,  2-H ) :   0.9807 B(  0-C ,  3-H ) :   0.9794

FINAL SINGLE POINT ENERGY       -39.826285319116

DIPOLE MOMENT
-------------
                                X             Y             Z
Electronic contribution:      0.09440      -0.10244      -0.02779
Nuclear contribution   :     -0.11221       0.14226       0.06960
                        -----------------------------------------
Total Dipole Moment    :     -0.01781       0.03983       0.04181
                        -----------------------------------------
Magnitude (a.u.)       :      0.06043
Magnitude (Debye)      :      0.15359

Rotational constants in cm-1:    10.595544     9.119122     4.933585
Rotational constants in MHz : 317646.411592 273384.397014 147905.149167

                             ****ORCA TERMINATED NORMALLY****
TOTAL RUN TIME: 0 days 0 hours 0 minutes 16 seconds 820 msec
