                         Program Version 5.0.3 -  RELEASE  -
|  1> !B3LYP EPR-III Autoaux
|  2> !PAL4
|  3>
|  4> * xyz 0 2
|  5>  C    -55.0991373240    -76.8954255784    -24.4501394161
|  6>  H    -55.0929985397    -77.9598252726    -24.5113169198
|  7>  H    -54.2464708311    -76.1920625508    -24.4093594153
|  8>  H    -56.0006805175    -76.2903958457    -24.4359170573
|  9> *
| 10>
| 11> %EPRNMR
| 12>         GTENSOR   TRUE
| 13>         NUCLEI    = ALL H {AISO, ADIP, AORB}
| 14>         NUCLEI    = ALL C {AISO, ADIP, AORB}
| 15> END
| 16>
| 17>
| 18>                          ****END OF INPUT****

CARTESIAN COORDINATES (ANGSTROEM)
---------------------------------
  C    -55.099137  -76.895426  -24.450139
  H    -55.092999  -77.959825  -24.511317
  H    -54.246471  -76.192063  -24.409359
  H    -56.000681  -76.290396  -24.435917

 Total Charge           Charge          ....    0
 Multiplicity           Mult            ....    2
 Number of Electrons    NEL             ....    9
 Basis Dimension        Dim             ....   73

ORBITAL ENERGIES
----------------
                 SPIN UP ORBITALS
  NO   OCC          E(Eh)            E(eV)
   0   1.0000     -10.186176      -277.1799
   1   1.0000      -0.686815       -18.6892
   2   1.0000      -0.442904       -12.0520
   3   1.0000      -0.398990       -10.8571
   4   1.0000      -0.234959        -6.3936
   5   0.0000       0.000689         0.0187
   6   0.0000       0.034279         0.9328
   7   0.0000       0.038953         1.0600
   8   0.0000       0.047438         1.2909
   9   0.0000       0.083966         2.2848

                 SPIN DOWN ORBITALS
  NO   OCC          E(Eh)            E(eV)
   0   1.0000     -10.171703      -276.7861
   1   1.0000      -0.647368       -17.6158
   2   1.0000      -0.433683       -11.8011
   3   1.0000      -0.389336       -10.5944
   4   0.0000      -0.077439        -2.1072
   5   0.0000       0.003883         0.1057
   6   0.0000       0.033959         0.9241
   7   0.0000       0.038539         1.0487
   8   0.0000       0.060702         1.6518

MULLIKEN ATOMIC CHARGES AND SPIN POPULATIONS
--------------------------------------------
   0 C :   -0.430847    1.105686
   1 H :    0.154352   -0.032046
   2 H :    0.139863   -0.037535
   3 H :    0.136632   -0.036104
Sum of atomic charges         :    0.0000000

LOEWDIN ATOMIC CHARGES AND SPIN POPULATIONS
-------------------------------------------
   0 C :   -0.156343    0.910311
   1 H :    0.044229    0.032861
   2 H :    0.061407    0.026645
   3 H :    0.050706    0.030184

  Mayer bond orders larger than 0.100000
B(  0-C ,  1-H ) :   0.9754 B(  0-C ,  2-H ) :   0.9778 B(  0-C ,  3-H ) :   0.9783

FINAL SINGLE POINT ENERGY       -39.824360577681

DIPOLE MOMENT
-------------
                                X             Y             Z
Electronic contribution:      0.02294      -0.16687       0.00017
Nuclear contribution   :     -0.03203       0.18287      -0.00463
                        -----------------------------------------
Total Dipole Moment    :     -0.00909       0.01600      -0.00446
                        -----------------------------------------
Magnitude (a.u.)       :      0.01893
Magnitude (Debye)      :      0.04813

Rotational constants in cm-1:    10.896858     8.360154     4.730950
Rotational constants in MHz : 326679.592836 250631.116982 141830.305250

                             ****ORCA TERMINATED NORMALLY****
TOTAL RUN TIME: 0 days 0 hours 0 minutes 21 seconds 397 msec
