                         Program Version 5.0.3 -  RELEASE  -
|  1> !B3LYP EPR-III Autoaux
|  2> !PAL4
|  3>
|  4> * xyz 0 2
|  5>  C    -92.6584120593   -122.1216759849    -33.1822573159
|  6>  H    -92.0444232260   -122.9946327280    -33.2217517200
|  7>  H    -92.2551310214   -121.1216713085    -33.0753844682
|  8>  H    -93.7783374466   -122.1696775840    -33.2454710470
|  9> *
| 10>
| 11> %EPRNMR
| 12>         GTENSOR   TRUE
| 13>         NUCLEI    = ALL H {AISO, ADIP, AORB}
| 14>         NUCLEI    = ALL C {AISO, ADIP, AORB}
| 15> END
| 16>
| 17>
| 18>                          ****END OF INPUT****

CARTESIAN COORDINATES (ANGSTROEM)
---------------------------------
  C    -92.658412  -122.121676  -33.182257
  H    -92.044423  -122.994633  -33.221752
  H    -92.255131  -121.121671  -33.075384
  H    -93.778337  -122.169678  -33.245471

 Total Charge           Charge          ....    0
 Multiplicity           Mult            ....    2
 Number of Electrons    NEL             ....    9
 Basis Dimension        Dim             ....   73

ORBITAL ENERGIES
----------------
                 SPIN UP ORBITALS
  NO   OCC          E(Eh)            E(eV)
   0   1.0000     -10.187855      -277.2256
   1   1.0000      -0.684794       -18.6342
   2   1.0000      -0.431466       -11.7408
   3   1.0000      -0.409639       -11.1468
   4   1.0000      -0.234848        -6.3905
   5   0.0000       0.000562         0.0153
   6   0.0000       0.035672         0.9707
   7   0.0000       0.037683         1.0254
   8   0.0000       0.047333         1.2880
   9   0.0000       0.086727         2.3599

                 SPIN DOWN ORBITALS
  NO   OCC          E(Eh)            E(eV)
   0   1.0000     -10.173398      -276.8322
   1   1.0000      -0.645249       -17.5581
   2   1.0000      -0.422115       -11.4863
   3   1.0000      -0.400367       -10.8945
   4   0.0000      -0.077361        -2.1051
   5   0.0000       0.003804         0.1035
   6   0.0000       0.035293         0.9604
   7   0.0000       0.037290         1.0147
   8   0.0000       0.060617         1.6495

MULLIKEN ATOMIC CHARGES AND SPIN POPULATIONS
--------------------------------------------
   0 C :   -0.427753    1.104758
   1 H :    0.148332   -0.032815
   2 H :    0.141592   -0.034711
   3 H :    0.137830   -0.037232
Sum of atomic charges         :   -0.0000000

LOEWDIN ATOMIC CHARGES AND SPIN POPULATIONS
-------------------------------------------
   0 C :   -0.159129    0.912145
   1 H :    0.042795    0.032974
   2 H :    0.049310    0.030580
   3 H :    0.067024    0.024301

  Mayer bond orders larger than 0.100000
B(  0-C ,  1-H ) :   0.9752 B(  0-C ,  2-H ) :   0.9762 B(  0-C ,  3-H ) :   0.9763

FINAL SINGLE POINT ENERGY       -39.827170831311

DIPOLE MOMENT
-------------
                                X             Y             Z
Electronic contribution:      0.07835      -0.05352      -0.00168
Nuclear contribution   :     -0.07694       0.05924       0.00312
                        -----------------------------------------
Total Dipole Moment    :      0.00142       0.00572       0.00144
                        -----------------------------------------
Magnitude (a.u.)       :      0.00607
Magnitude (Debye)      :      0.01543

Rotational constants in cm-1:     9.748969     8.997982     4.679223
Rotational constants in MHz : 292266.738103 269752.726092 140279.582153

                             ****ORCA TERMINATED NORMALLY****
TOTAL RUN TIME: 0 days 0 hours 0 minutes 26 seconds 398 msec
