                         Program Version 5.0.3 -  RELEASE  -
|  1> !B3LYP EPR-III Autoaux
|  2> !PAL4
|  3>
|  4> * xyz 0 2
|  5>  C    -24.6609333981    -42.8163678903    -16.7793574342
|  6>  H    -25.0496184848    -41.7671690399    -16.8513194336
|  7>  H    -25.5604996352    -43.4353033804    -16.5182521247
|  8>  H    -23.6090837061    -43.1181913347    -16.7910364842
|  9> *
| 10>
| 11> %EPRNMR
| 12>         GTENSOR   TRUE
| 13>         NUCLEI    = ALL H {AISO, ADIP, AORB}
| 14>         NUCLEI    = ALL C {AISO, ADIP, AORB}
| 15> END
| 16>
| 17>
| 18>                          ****END OF INPUT****

CARTESIAN COORDINATES (ANGSTROEM)
---------------------------------
  C    -24.660933  -42.816368  -16.779357
  H    -25.049618  -41.767169  -16.851319
  H    -25.560500  -43.435303  -16.518252
  H    -23.609084  -43.118191  -16.791036

 Total Charge           Charge          ....    0
 Multiplicity           Mult            ....    2
 Number of Electrons    NEL             ....    9
 Basis Dimension        Dim             ....   73

ORBITAL ENERGIES
----------------
                 SPIN UP ORBITALS
  NO   OCC          E(Eh)            E(eV)
   0   1.0000     -10.194329      -277.4018
   1   1.0000      -0.679999       -18.5037
   2   1.0000      -0.438514       -11.9326
   3   1.0000      -0.391188       -10.6448
   4   1.0000      -0.235905        -6.4193
   5   0.0000      -0.000426        -0.0116
   6   0.0000       0.033934         0.9234
   7   0.0000       0.039181         1.0662
   8   0.0000       0.047261         1.2860
   9   0.0000       0.081135         2.2078

                 SPIN DOWN ORBITALS
  NO   OCC          E(Eh)            E(eV)
   0   1.0000     -10.179673      -277.0030
   1   1.0000      -0.640397       -17.4261
   2   1.0000      -0.429536       -11.6883
   3   1.0000      -0.381703       -10.3867
   4   0.0000      -0.077663        -2.1133
   5   0.0000       0.003036         0.0826
   6   0.0000       0.033683         0.9166
   7   0.0000       0.038825         1.0565
   8   0.0000       0.060558         1.6479

MULLIKEN ATOMIC CHARGES AND SPIN POPULATIONS
--------------------------------------------
   0 C :   -0.430992    1.109321
   1 H :    0.136343   -0.038080
   2 H :    0.138627   -0.038248
   3 H :    0.156022   -0.032992
Sum of atomic charges         :   -0.0000000

LOEWDIN ATOMIC CHARGES AND SPIN POPULATIONS
-------------------------------------------
   0 C :   -0.180093    0.921998
   1 H :    0.062337    0.024819
   2 H :    0.063661    0.024479
   3 H :    0.054094    0.028704

  Mayer bond orders larger than 0.100000
B(  0-C ,  1-H ) :   0.9750 B(  0-C ,  2-H ) :   0.9746 B(  0-C ,  3-H ) :   0.9706

FINAL SINGLE POINT ENERGY       -39.821564492680

DIPOLE MOMENT
-------------
                                X             Y             Z
Electronic contribution:      0.16843      -0.08186      -0.08692
Nuclear contribution   :     -0.17718       0.09626       0.13301
                        -----------------------------------------
Total Dipole Moment    :     -0.00875       0.01440       0.04608
                        -----------------------------------------
Magnitude (a.u.)       :      0.04907
Magnitude (Debye)      :      0.12472

Rotational constants in cm-1:    10.557343     7.845648     4.519096
Rotational constants in MHz : 316501.179450 235206.605751 135479.101682

                             ****ORCA TERMINATED NORMALLY****
TOTAL RUN TIME: 0 days 0 hours 0 minutes 26 seconds 108 msec
