                         Program Version 5.0.3 -  RELEASE  -
|  1> !B3LYP EPR-III Autoaux
|  2> !PAL4
|  3>
|  4> * xyz 0 2
|  5>  C    -40.4165109289    -60.5102472224    -20.7543885973
|  6>  H    -40.9679111081    -61.4990489608    -20.7321364476
|  7>  H    -39.3549718152    -60.3524361446    -20.9151146717
|  8>  H    -41.1009570804    -59.6424647083    -20.6351615477
|  9> *
| 10>
| 11> %EPRNMR
| 12>         GTENSOR   TRUE
| 13>         NUCLEI    = ALL H {AISO, ADIP, AORB}
| 14>         NUCLEI    = ALL C {AISO, ADIP, AORB}
| 15> END
| 16>
| 17>
| 18>                          ****END OF INPUT****

CARTESIAN COORDINATES (ANGSTROEM)
---------------------------------
  C    -40.416511  -60.510247  -20.754389
  H    -40.967911  -61.499049  -20.732136
  H    -39.354972  -60.352436  -20.915115
  H    -41.100957  -59.642465  -20.635162

 Total Charge           Charge          ....    0
 Multiplicity           Mult            ....    2
 Number of Electrons    NEL             ....    9
 Basis Dimension        Dim             ....   73

ORBITAL ENERGIES
----------------
                 SPIN UP ORBITALS
  NO   OCC          E(Eh)            E(eV)
   0   1.0000     -10.193089      -277.3681
   1   1.0000      -0.679984       -18.5033
   2   1.0000      -0.430207       -11.7065
   3   1.0000      -0.402441       -10.9510
   4   1.0000      -0.234951        -6.3933
   5   0.0000      -0.000144        -0.0039
   6   0.0000       0.035092         0.9549
   7   0.0000       0.038138         1.0378
   8   0.0000       0.047334         1.2880
   9   0.0000       0.081761         2.2248

                 SPIN DOWN ORBITALS
  NO   OCC          E(Eh)            E(eV)
   0   1.0000     -10.178479      -276.9705
   1   1.0000      -0.640195       -17.4206
   2   1.0000      -0.421148       -11.4600
   3   1.0000      -0.393173       -10.6988
   4   0.0000      -0.077112        -2.0983
   5   0.0000       0.003306         0.0900
   6   0.0000       0.034795         0.9468
   7   0.0000       0.037795         1.0284
   8   0.0000       0.060672         1.6510

MULLIKEN ATOMIC CHARGES AND SPIN POPULATIONS
--------------------------------------------
   0 C :   -0.428457    1.109144
   1 H :    0.141695   -0.038268
   2 H :    0.150357   -0.033911
   3 H :    0.136406   -0.036966
Sum of atomic charges         :   -0.0000000

LOEWDIN ATOMIC CHARGES AND SPIN POPULATIONS
-------------------------------------------
   0 C :   -0.175675    0.920540
   1 H :    0.068922    0.022787
   2 H :    0.048647    0.030285
   3 H :    0.058106    0.026388

  Mayer bond orders larger than 0.100000
B(  0-C ,  1-H ) :   0.9732 B(  0-C ,  2-H ) :   0.9723 B(  0-C ,  3-H ) :   0.9746

FINAL SINGLE POINT ENERGY       -39.825066185288

DIPOLE MOMENT
-------------
                                X             Y             Z
Electronic contribution:      0.12143      -0.01936       0.00349
Nuclear contribution   :     -0.13064       0.02757      -0.01443
                        -----------------------------------------
Total Dipole Moment    :     -0.00921       0.00822      -0.01093
                        -----------------------------------------
Magnitude (a.u.)       :      0.01649
Magnitude (Debye)      :      0.04191

Rotational constants in cm-1:     9.802844     8.412542     4.528649
Rotational constants in MHz : 293881.862236 252201.662520 135765.494866

                             ****ORCA TERMINATED NORMALLY****
TOTAL RUN TIME: 0 days 0 hours 0 minutes 19 seconds 129 msec
