                         Program Version 5.0.3 -  RELEASE  -
|  1> !B3LYP EPR-III Autoaux
|  2> !PAL4
|  3>
|  4> * xyz 0 2
|  5>  C    -65.4995830918    -88.7563472509    -26.9710968253
|  6>  H    -64.9916293602    -87.7682771778    -26.8830978570
|  7>  H    -66.5469730570    -88.9364587256    -26.9989843081
|  8>  H    -64.9304639099    -89.7352767950    -27.0236351051
|  9> *
| 10>
| 11> %EPRNMR
| 12>         GTENSOR   TRUE
| 13>         NUCLEI    = ALL H {AISO, ADIP, AORB}
| 14>         NUCLEI    = ALL C {AISO, ADIP, AORB}
| 15> END
| 16>
| 17>
| 18>                          ****END OF INPUT****

CARTESIAN COORDINATES (ANGSTROEM)
---------------------------------
  C    -65.499583  -88.756347  -26.971097
  H    -64.991629  -87.768277  -26.883098
  H    -66.546973  -88.936459  -26.998984
  H    -64.930464  -89.735277  -27.023635

 Total Charge           Charge          ....    0
 Multiplicity           Mult            ....    2
 Number of Electrons    NEL             ....    9
 Basis Dimension        Dim             ....   73

ORBITAL ENERGIES
----------------
                 SPIN UP ORBITALS
  NO   OCC          E(Eh)            E(eV)
   0   1.0000     -10.191223      -277.3173
   1   1.0000      -0.682134       -18.5618
   2   1.0000      -0.432194       -11.7606
   3   1.0000      -0.402543       -10.9537
   4   1.0000      -0.234908        -6.3922
   5   0.0000       0.000005         0.0001
   6   0.0000       0.034984         0.9520
   7   0.0000       0.038238         1.0405
   8   0.0000       0.047360         1.2887
   9   0.0000       0.083636         2.2759

                 SPIN DOWN ORBITALS
  NO   OCC          E(Eh)            E(eV)
   0   1.0000     -10.176647      -276.9206
   1   1.0000      -0.642473       -17.4826
   2   1.0000      -0.423050       -11.5118
   3   1.0000      -0.393168       -10.6986
   4   0.0000      -0.077155        -2.0995
   5   0.0000       0.003402         0.0926
   6   0.0000       0.034697         0.9442
   7   0.0000       0.037872         1.0306
   8   0.0000       0.060680         1.6512

MULLIKEN ATOMIC CHARGES AND SPIN POPULATIONS
--------------------------------------------
   0 C :   -0.429271    1.108498
   1 H :    0.150136   -0.035764
   2 H :    0.145009   -0.034094
   3 H :    0.134127   -0.038640
Sum of atomic charges         :   -0.0000000

LOEWDIN ATOMIC CHARGES AND SPIN POPULATIONS
-------------------------------------------
   0 C :   -0.170064    0.917813
   1 H :    0.064069    0.025263
   2 H :    0.037058    0.034114
   3 H :    0.068937    0.022809

  Mayer bond orders larger than 0.100000
B(  0-C ,  1-H ) :   0.9722 B(  0-C ,  2-H ) :   0.9747 B(  0-C ,  3-H ) :   0.9759

FINAL SINGLE POINT ENERGY       -39.824068760180

DIPOLE MOMENT
-------------
                                X             Y             Z
Electronic contribution:     -0.03239       0.12075      -0.00104
Nuclear contribution   :      0.02225      -0.12814       0.00568
                        -----------------------------------------
Total Dipole Moment    :     -0.01014      -0.00739       0.00464
                        -----------------------------------------
Magnitude (a.u.)       :      0.01338
Magnitude (Debye)      :      0.03400

Rotational constants in cm-1:    10.283486     8.242250     4.575452
Rotational constants in MHz : 308291.164011 247096.450335 137168.603239

                             ****ORCA TERMINATED NORMALLY****
TOTAL RUN TIME: 0 days 0 hours 0 minutes 18 seconds 902 msec
