                         Program Version 5.0.3 -  RELEASE  -
|  1> !B3LYP EPR-III Autoaux
|  2> !PAL4
|  3>
|  4> * xyz 0 2
|  5>  C    -55.8644377584    -77.7184218038    -24.6433864861
|  6>  H    -55.1135914754    -78.5412363877    -24.7367109174
|  7>  H    -55.4275390791    -76.6950301334    -24.5369253992
|  8>  H    -56.9524152077    -77.8701641435    -24.7065926679
|  9> *
| 10>
| 11> %EPRNMR
| 12>         GTENSOR   TRUE
| 13>         NUCLEI    = ALL H {AISO, ADIP, AORB}
| 14>         NUCLEI    = ALL C {AISO, ADIP, AORB}
| 15> END
| 16>
| 17>
| 18>                          ****END OF INPUT****

CARTESIAN COORDINATES (ANGSTROEM)
---------------------------------
  C    -55.864438  -77.718422  -24.643386
  H    -55.113591  -78.541236  -24.736711
  H    -55.427539  -76.695030  -24.536925
  H    -56.952415  -77.870164  -24.706593

 Total Charge           Charge          ....    0
 Multiplicity           Mult            ....    2
 Number of Electrons    NEL             ....    9
 Basis Dimension        Dim             ....   73

ORBITAL ENERGIES
----------------
                 SPIN UP ORBITALS
  NO   OCC          E(Eh)            E(eV)
   0   1.0000     -10.193720      -277.3852
   1   1.0000      -0.679031       -18.4774
   2   1.0000      -0.424689       -11.5564
   3   1.0000      -0.407283       -11.0827
   4   1.0000      -0.234899        -6.3919
   5   0.0000      -0.000174        -0.0047
   6   0.0000       0.035709         0.9717
   7   0.0000       0.037604         1.0233
   8   0.0000       0.047333         1.2880
   9   0.0000       0.085042         2.3141

                 SPIN DOWN ORBITALS
  NO   OCC          E(Eh)            E(eV)
   0   1.0000     -10.179101      -276.9874
   1   1.0000      -0.639204       -17.3936
   2   1.0000      -0.415626       -11.3098
   3   1.0000      -0.398088       -10.8325
   4   0.0000      -0.077042        -2.0964
   5   0.0000       0.003294         0.0896
   6   0.0000       0.035402         0.9633
   7   0.0000       0.037270         1.0142
   8   0.0000       0.060681         1.6512

MULLIKEN ATOMIC CHARGES AND SPIN POPULATIONS
--------------------------------------------
   0 C :   -0.427092    1.109029
   1 H :    0.141155   -0.036940
   2 H :    0.138574   -0.037051
   3 H :    0.147364   -0.035038
Sum of atomic charges         :    0.0000000

LOEWDIN ATOMIC CHARGES AND SPIN POPULATIONS
-------------------------------------------
   0 C :   -0.177650    0.921501
   1 H :    0.061688    0.025244
   2 H :    0.061027    0.025347
   3 H :    0.054934    0.027907

  Mayer bond orders larger than 0.100000
B(  0-C ,  1-H ) :   0.9731 B(  0-C ,  2-H ) :   0.9736 B(  0-C ,  3-H ) :   0.9720

FINAL SINGLE POINT ENERGY       -39.826205056853

DIPOLE MOMENT
-------------
                                X             Y             Z
Electronic contribution:     -0.07039      -0.03211       0.02218
Nuclear contribution   :      0.07477       0.03660      -0.03753
                        -----------------------------------------
Total Dipole Moment    :      0.00439       0.00449      -0.01535
                        -----------------------------------------
Magnitude (a.u.)       :      0.01658
Magnitude (Debye)      :      0.04214

Rotational constants in cm-1:     9.448516     8.622081     4.510348
Rotational constants in MHz : 283259.382079 258483.489364 135216.829726

                             ****ORCA TERMINATED NORMALLY****
TOTAL RUN TIME: 0 days 0 hours 0 minutes 20 seconds 24 msec
