                         Program Version 5.0.3 -  RELEASE  -
|  1> !B3LYP EPR-III Autoaux
|  2> !PAL4
|  3>
|  4> * xyz 0 2
|  5>  C    -69.4341809395    -93.4988436376    -27.8695326918
|  6>  H    -69.6759647781    -94.5344975400    -27.9513103823
|  7>  H    -68.3320757599    -93.2548964483    -27.8038857789
|  8>  H    -70.3264530166    -92.9069119041    -27.8403905454
|  9> *
| 10>
| 11> %EPRNMR
| 12>         GTENSOR   TRUE
| 13>         NUCLEI    = ALL H {AISO, ADIP, AORB}
| 14>         NUCLEI    = ALL C {AISO, ADIP, AORB}
| 15> END
| 16>
| 17>
| 18>                          ****END OF INPUT****

CARTESIAN COORDINATES (ANGSTROEM)
---------------------------------
  C    -69.434181  -93.498844  -27.869533
  H    -69.675965  -94.534498  -27.951310
  H    -68.332076  -93.254896  -27.803886
  H    -70.326453  -92.906912  -27.840391

 Total Charge           Charge          ....    0
 Multiplicity           Mult            ....    2
 Number of Electrons    NEL             ....    9
 Basis Dimension        Dim             ....   73

ORBITAL ENERGIES
----------------
                 SPIN UP ORBITALS
  NO   OCC          E(Eh)            E(eV)
   0   1.0000     -10.186811      -277.1972
   1   1.0000      -0.686634       -18.6843
   2   1.0000      -0.434695       -11.8286
   3   1.0000      -0.404503       -11.0071
   4   1.0000      -0.234800        -6.3892
   5   0.0000       0.000355         0.0097
   6   0.0000       0.034460         0.9377
   7   0.0000       0.038707         1.0533
   8   0.0000       0.047435         1.2908
   9   0.0000       0.077943         2.1209

                 SPIN DOWN ORBITALS
  NO   OCC          E(Eh)            E(eV)
   0   1.0000     -10.172315      -276.8028
   1   1.0000      -0.647286       -17.6135
   2   1.0000      -0.425738       -11.5849
   3   1.0000      -0.394497       -10.7348
   4   0.0000      -0.077264        -2.1025
   5   0.0000       0.003626         0.0987
   6   0.0000       0.034180         0.9301
   7   0.0000       0.038289         1.0419
   8   0.0000       0.060716         1.6522

MULLIKEN ATOMIC CHARGES AND SPIN POPULATIONS
--------------------------------------------
   0 C :   -0.432304    1.106908
   1 H :    0.133650   -0.034641
   2 H :    0.149847   -0.037698
   3 H :    0.148808   -0.034569
Sum of atomic charges         :    0.0000000

LOEWDIN ATOMIC CHARGES AND SPIN POPULATIONS
-------------------------------------------
   0 C :   -0.159833    0.911749
   1 H :    0.039770    0.033689
   2 H :    0.074255    0.022326
   3 H :    0.045808    0.032236

  Mayer bond orders larger than 0.100000
B(  0-C ,  1-H ) :   0.9782 B(  0-C ,  2-H ) :   0.9741 B(  0-C ,  3-H ) :   0.9767

FINAL SINGLE POINT ENERGY       -39.822811559693

DIPOLE MOMENT
-------------
                                X             Y             Z
Electronic contribution:      0.01393       0.12145      -0.00379
Nuclear contribution   :     -0.02395      -0.14973       0.00975
                        -----------------------------------------
Total Dipole Moment    :     -0.01001      -0.02828       0.00596
                        -----------------------------------------
Magnitude (a.u.)       :      0.03058
Magnitude (Debye)      :      0.07774

Rotational constants in cm-1:    11.228172     8.072942     4.696963
Rotational constants in MHz : 336612.125526 242020.721375 140811.397630

                             ****ORCA TERMINATED NORMALLY****
TOTAL RUN TIME: 0 days 0 hours 0 minutes 17 seconds 785 msec
