                         Program Version 5.0.3 -  RELEASE  -
|  1> !B3LYP EPR-III Autoaux
|  2> !PAL4
|  3>
|  4> * xyz 0 2
|  5>  C    -11.4474352005    -27.9205679650    -13.3596688905
|  6>  H    -12.4157554913    -28.4341669421    -13.2526226394
|  7>  H    -10.5432820745    -28.3734635831    -12.8978993151
|  8>  H    -11.4817245881    -27.0034998103    -13.9366325512
|  9> *
| 10>
| 11> %EPRNMR
| 12>         GTENSOR   TRUE
| 13>         NUCLEI    = ALL H {AISO, ADIP, AORB}
| 14>         NUCLEI    = ALL C {AISO, ADIP, AORB}
| 15> END
| 16>
| 17>
| 18>                          ****END OF INPUT****

CARTESIAN COORDINATES (ANGSTROEM)
---------------------------------
  C    -11.447435  -27.920568  -13.359669
  H    -12.415755  -28.434167  -13.252623
  H    -10.543282  -28.373464  -12.897899
  H    -11.481725  -27.003500  -13.936633

 Total Charge           Charge          ....    0
 Multiplicity           Mult            ....    2
 Number of Electrons    NEL             ....    9
 Basis Dimension        Dim             ....   73

ORBITAL ENERGIES
----------------
                 SPIN UP ORBITALS
  NO   OCC          E(Eh)            E(eV)
   0   1.0000     -10.189831      -277.2794
   1   1.0000      -0.682605       -18.5746
   2   1.0000      -0.427416       -11.6306
   3   1.0000      -0.409817       -11.1517
   4   1.0000      -0.234741        -6.3876
   5   0.0000       0.000329         0.0090
   6   0.0000       0.035615         0.9691
   7   0.0000       0.037756         1.0274
   8   0.0000       0.047403         1.2899
   9   0.0000       0.084722         2.3054

                 SPIN DOWN ORBITALS
  NO   OCC          E(Eh)            E(eV)
   0   1.0000     -10.175293      -276.8838
   1   1.0000      -0.642956       -17.4957
   2   1.0000      -0.418303       -11.3826
   3   1.0000      -0.400378       -10.8948
   4   0.0000      -0.077108        -2.0982
   5   0.0000       0.003655         0.0995
   6   0.0000       0.035295         0.9604
   7   0.0000       0.037379         1.0171
   8   0.0000       0.060718         1.6522

MULLIKEN ATOMIC CHARGES AND SPIN POPULATIONS
--------------------------------------------
   0 C :   -0.427739    1.106903
   1 H :    0.136869   -0.036155
   2 H :    0.146080   -0.036031
   3 H :    0.144790   -0.034717
Sum of atomic charges         :   -0.0000000

LOEWDIN ATOMIC CHARGES AND SPIN POPULATIONS
-------------------------------------------
   0 C :   -0.166755    0.915822
   1 H :    0.055450    0.027898
   2 H :    0.062492    0.025810
   3 H :    0.048813    0.030470

  Mayer bond orders larger than 0.100000
B(  0-C ,  1-H ) :   0.9759 B(  0-C ,  2-H ) :   0.9737 B(  0-C ,  3-H ) :   0.9748

FINAL SINGLE POINT ENERGY       -39.826973717266

DIPOLE MOMENT
-------------
                                X             Y             Z
Electronic contribution:      0.06535       0.03426       0.00108
Nuclear contribution   :     -0.07379      -0.03704      -0.00611
                        -----------------------------------------
Total Dipole Moment    :     -0.00844      -0.00279      -0.00503
                        -----------------------------------------
Magnitude (a.u.)       :      0.01021
Magnitude (Debye)      :      0.02596

Rotational constants in cm-1:     9.939293     8.618570     4.616120
Rotational constants in MHz : 297972.506028 258378.225813 138387.809662

                             ****ORCA TERMINATED NORMALLY****
TOTAL RUN TIME: 0 days 0 hours 0 minutes 22 seconds 701 msec
