                         Program Version 5.0.3 -  RELEASE  -
|  1> !B3LYP EPR-III Autoaux
|  2> !PAL4
|  3>
|  4> * xyz 0 2
|  5>  C    -18.0658806211    -35.3808668805    -15.0597999079
|  6>  H    -17.3841440211    -34.5089076948    -15.2387596305
|  7>  H    -19.0071724222    -35.1028689770    -14.5753653605
|  8>  H    -18.0007921272    -36.3687153377    -15.4609219017
|  9> *
| 10>
| 11> %EPRNMR
| 12>         GTENSOR   TRUE
| 13>         NUCLEI    = ALL H {AISO, ADIP, AORB}
| 14>         NUCLEI    = ALL C {AISO, ADIP, AORB}
| 15> END
| 16>
| 17>
| 18>                          ****END OF INPUT****

CARTESIAN COORDINATES (ANGSTROEM)
---------------------------------
  C    -18.065881  -35.380867  -15.059800
  H    -17.384144  -34.508908  -15.238760
  H    -19.007172  -35.102869  -14.575365
  H    -18.000792  -36.368715  -15.460922

 Total Charge           Charge          ....    0
 Multiplicity           Mult            ....    2
 Number of Electrons    NEL             ....    9
 Basis Dimension        Dim             ....   73

ORBITAL ENERGIES
----------------
                 SPIN UP ORBITALS
  NO   OCC          E(Eh)            E(eV)
   0   1.0000     -10.188741      -277.2497
   1   1.0000      -0.684385       -18.6231
   2   1.0000      -0.432583       -11.7712
   3   1.0000      -0.405449       -11.0328
   4   1.0000      -0.236030        -6.4227
   5   0.0000       0.000403         0.0110
   6   0.0000       0.035235         0.9588
   7   0.0000       0.038275         1.0415
   8   0.0000       0.047381         1.2893
   9   0.0000       0.082808         2.2533

                 SPIN DOWN ORBITALS
  NO   OCC          E(Eh)            E(eV)
   0   1.0000     -10.174197      -276.8540
   1   1.0000      -0.645022       -17.5519
   2   1.0000      -0.423310       -11.5188
   3   1.0000      -0.395887       -10.7726
   4   0.0000      -0.077891        -2.1195
   5   0.0000       0.003632         0.0988
   6   0.0000       0.034923         0.9503
   7   0.0000       0.037901         1.0313
   8   0.0000       0.060624         1.6497

MULLIKEN ATOMIC CHARGES AND SPIN POPULATIONS
--------------------------------------------
   0 C :   -0.426719    1.103808
   1 H :    0.143326   -0.036340
   2 H :    0.134468   -0.035201
   3 H :    0.148925   -0.032267
Sum of atomic charges         :    0.0000000

LOEWDIN ATOMIC CHARGES AND SPIN POPULATIONS
-------------------------------------------
   0 C :   -0.162668    0.913526
   1 H :    0.067288    0.024424
   2 H :    0.052754    0.029036
   3 H :    0.042627    0.033014

  Mayer bond orders larger than 0.100000
B(  0-C ,  1-H ) :   0.9750 B(  0-C ,  2-H ) :   0.9771 B(  0-C ,  3-H ) :   0.9751

FINAL SINGLE POINT ENERGY       -39.825716001053

DIPOLE MOMENT
-------------
                                X             Y             Z
Electronic contribution:      0.10737      -0.10440       0.02887
Nuclear contribution   :     -0.14575       0.12150      -0.07169
                        -----------------------------------------
Total Dipole Moment    :     -0.03838       0.01710      -0.04282
                        -----------------------------------------
Magnitude (a.u.)       :      0.05999
Magnitude (Debye)      :      0.15248

Rotational constants in cm-1:    10.166105     8.542668     4.672014
Rotational constants in MHz : 304772.151990 256102.737526 140063.446688

                             ****ORCA TERMINATED NORMALLY****
TOTAL RUN TIME: 0 days 0 hours 0 minutes 20 seconds 91 msec
