                         Program Version 5.0.3 -  RELEASE  -
|  1> !B3LYP EPR-III Autoaux
|  2> !PAL4
|  3>
|  4> * xyz 0 2
|  5>  C    -57.8777678861    -79.9908192013    -25.1512422096
|  6>  H    -57.1983200493    -79.1083457447    -25.1235436387
|  7>  H    -58.9601331075    -79.6109018879    -25.1052551919
|  8>  H    -57.4607050742    -80.9749052391    -25.2345660453
|  9> *
| 10>
| 11> %EPRNMR
| 12>         GTENSOR   TRUE
| 13>         NUCLEI    = ALL H {AISO, ADIP, AORB}
| 14>         NUCLEI    = ALL C {AISO, ADIP, AORB}
| 15> END
| 16>
| 17>
| 18>                          ****END OF INPUT****

CARTESIAN COORDINATES (ANGSTROEM)
---------------------------------
  C    -57.877768  -79.990819  -25.151242
  H    -57.198320  -79.108346  -25.123544
  H    -58.960133  -79.610902  -25.105255
  H    -57.460705  -80.974905  -25.234566

 Total Charge           Charge          ....    0
 Multiplicity           Mult            ....    2
 Number of Electrons    NEL             ....    9
 Basis Dimension        Dim             ....   73

ORBITAL ENERGIES
----------------
                 SPIN UP ORBITALS
  NO   OCC          E(Eh)            E(eV)
   0   1.0000     -10.193670      -277.3839
   1   1.0000      -0.680384       -18.5142
   2   1.0000      -0.437368       -11.9014
   3   1.0000      -0.393784       -10.7154
   4   1.0000      -0.235149        -6.3987
   5   0.0000      -0.000396        -0.0108
   6   0.0000       0.034026         0.9259
   7   0.0000       0.038944         1.0597
   8   0.0000       0.047296         1.2870
   9   0.0000       0.076710         2.0874

                 SPIN DOWN ORBITALS
  NO   OCC          E(Eh)            E(eV)
   0   1.0000     -10.179037      -276.9857
   1   1.0000      -0.640618       -17.4321
   2   1.0000      -0.428390       -11.6571
   3   1.0000      -0.384406       -10.4602
   4   0.0000      -0.077230        -2.1015
   5   0.0000       0.003098         0.0843
   6   0.0000       0.033765         0.9188
   7   0.0000       0.038597         1.0503
   8   0.0000       0.060627         1.6497

MULLIKEN ATOMIC CHARGES AND SPIN POPULATIONS
--------------------------------------------
   0 C :   -0.431850    1.110700
   1 H :    0.132766   -0.037632
   2 H :    0.144004   -0.040236
   3 H :    0.155080   -0.032832
Sum of atomic charges         :    0.0000000

LOEWDIN ATOMIC CHARGES AND SPIN POPULATIONS
-------------------------------------------
   0 C :   -0.177373    0.921402
   1 H :    0.058191    0.026116
   2 H :    0.076329    0.020114
   3 H :    0.042853    0.032367

  Mayer bond orders larger than 0.100000
B(  0-C ,  1-H ) :   0.9755 B(  0-C ,  2-H ) :   0.9729 B(  0-C ,  3-H ) :   0.9720

FINAL SINGLE POINT ENERGY       -39.821563505451

DIPOLE MOMENT
-------------
                                X             Y             Z
Electronic contribution:      0.00045      -0.19099       0.00056
Nuclear contribution   :      0.01060       0.20858      -0.00722
                        -----------------------------------------
Total Dipole Moment    :      0.01105       0.01759      -0.00667
                        -----------------------------------------
Magnitude (a.u.)       :      0.02182
Magnitude (Debye)      :      0.05546

Rotational constants in cm-1:    10.313100     8.033299     4.516238
Rotational constants in MHz : 309178.946380 240832.241965 135393.403191

                             ****ORCA TERMINATED NORMALLY****
TOTAL RUN TIME: 0 days 0 hours 0 minutes 20 seconds 583 msec
