                         Program Version 5.0.3 -  RELEASE  -
|  1> !B3LYP EPR-III Autoaux
|  2> !PAL4
|  3>
|  4> * xyz 0 2
|  5>  C    -45.3882461042    -66.0472911169    -22.0127537115
|  6>  H    -46.2056039133    -65.3537204904    -21.9587237785
|  7>  H    -45.4344524192    -67.1537770804    -22.1067701523
|  8>  H    -44.4121213601    -65.6117317424    -21.8767977128
|  9> *
| 10>
| 11> %EPRNMR
| 12>         GTENSOR   TRUE
| 13>         NUCLEI    = ALL H {AISO, ADIP, AORB}
| 14>         NUCLEI    = ALL C {AISO, ADIP, AORB}
| 15> END
| 16>
| 17>
| 18>                          ****END OF INPUT****

CARTESIAN COORDINATES (ANGSTROEM)
---------------------------------
  C    -45.388246  -66.047291  -22.012754
  H    -46.205604  -65.353720  -21.958724
  H    -45.434452  -67.153777  -22.106770
  H    -44.412121  -65.611732  -21.876798

 Total Charge           Charge          ....    0
 Multiplicity           Mult            ....    2
 Number of Electrons    NEL             ....    9
 Basis Dimension        Dim             ....   73

ORBITAL ENERGIES
----------------
                 SPIN UP ORBITALS
  NO   OCC          E(Eh)            E(eV)
   0   1.0000     -10.186332      -277.1842
   1   1.0000      -0.686006       -18.6672
   2   1.0000      -0.430526       -11.7152
   3   1.0000      -0.411198       -11.1893
   4   1.0000      -0.234899        -6.3919
   5   0.0000       0.000695         0.0189
   6   0.0000       0.035469         0.9652
   7   0.0000       0.037974         1.0333
   8   0.0000       0.047456         1.2913
   9   0.0000       0.084162         2.2902

                 SPIN DOWN ORBITALS
  NO   OCC          E(Eh)            E(eV)
   0   1.0000     -10.171857      -276.7903
   1   1.0000      -0.646558       -17.5937
   2   1.0000      -0.421350       -11.4655
   3   1.0000      -0.401523       -10.9260
   4   0.0000      -0.077337        -2.1044
   5   0.0000       0.003899         0.1061
   6   0.0000       0.035137         0.9561
   7   0.0000       0.037571         1.0223
   8   0.0000       0.060730         1.6525

MULLIKEN ATOMIC CHARGES AND SPIN POPULATIONS
--------------------------------------------
   0 C :   -0.428118    1.104536
   1 H :    0.146295   -0.033792
   2 H :    0.145234   -0.036087
   3 H :    0.136590   -0.034657
Sum of atomic charges         :    0.0000000

LOEWDIN ATOMIC CHARGES AND SPIN POPULATIONS
-------------------------------------------
   0 C :   -0.156730    0.910632
   1 H :    0.046150    0.032003
   2 H :    0.064485    0.025676
   3 H :    0.046095    0.031690

  Mayer bond orders larger than 0.100000
B(  0-C ,  1-H ) :   0.9764 B(  0-C ,  2-H ) :   0.9755 B(  0-C ,  3-H ) :   0.9777

FINAL SINGLE POINT ENERGY       -39.826770613252

DIPOLE MOMENT
-------------
                                X             Y             Z
Electronic contribution:     -0.07357      -0.01070      -0.04614
Nuclear contribution   :      0.08436       0.01697       0.07193
                        -----------------------------------------
Total Dipole Moment    :      0.01079       0.00627       0.02579
                        -----------------------------------------
Magnitude (a.u.)       :      0.02865
Magnitude (Debye)      :      0.07282

Rotational constants in cm-1:    10.390397     8.623895     4.717762
Rotational constants in MHz : 311496.279607 258537.871194 141434.935267

                             ****ORCA TERMINATED NORMALLY****
TOTAL RUN TIME: 0 days 0 hours 0 minutes 20 seconds 241 msec
