                         Program Version 5.0.3 -  RELEASE  -
|  1> !B3LYP EPR-III Autoaux
|  2> !PAL4
|  3>
|  4> * xyz 0 2
|  5>  C    -90.2197888282   -119.0090838594    -32.6885118930
|  6>  H    -91.2828342310   -119.2194051398    -32.7596950074
|  7>  H    -89.4723398334   -119.7846094271    -32.7249332489
|  8>  H    -89.7762407974   -118.0860065517    -32.5943120856
|  9> *
| 10>
| 11> %EPRNMR
| 12>         GTENSOR   TRUE
| 13>         NUCLEI    = ALL H {AISO, ADIP, AORB}
| 14>         NUCLEI    = ALL C {AISO, ADIP, AORB}
| 15> END
| 16>
| 17>
| 18>                          ****END OF INPUT****

CARTESIAN COORDINATES (ANGSTROEM)
---------------------------------
  C    -90.219789  -119.009084  -32.688512
  H    -91.282834  -119.219405  -32.759695
  H    -89.472340  -119.784609  -32.724933
  H    -89.776241  -118.086007  -32.594312

 Total Charge           Charge          ....    0
 Multiplicity           Mult            ....    2
 Number of Electrons    NEL             ....    9
 Basis Dimension        Dim             ....   73

ORBITAL ENERGIES
----------------
                 SPIN UP ORBITALS
  NO   OCC          E(Eh)            E(eV)
   0   1.0000     -10.179145      -276.9886
   1   1.0000      -0.692900       -18.8548
   2   1.0000      -0.439128       -11.9493
   3   1.0000      -0.412522       -11.2253
   4   1.0000      -0.234691        -6.3863
   5   0.0000       0.001397         0.0380
   6   0.0000       0.035283         0.9601
   7   0.0000       0.038223         1.0401
   8   0.0000       0.047569         1.2944
   9   0.0000       0.089174         2.4265

                 SPIN DOWN ORBITALS
  NO   OCC          E(Eh)            E(eV)
   0   1.0000     -10.164804      -276.5984
   1   1.0000      -0.653719       -17.7886
   2   1.0000      -0.429634       -11.6909
   3   1.0000      -0.402647       -10.9566
   4   0.0000      -0.077489        -2.1086
   5   0.0000       0.004400         0.1197
   6   0.0000       0.034921         0.9502
   7   0.0000       0.037770         1.0278
   8   0.0000       0.060781         1.6539

MULLIKEN ATOMIC CHARGES AND SPIN POPULATIONS
--------------------------------------------
   0 C :   -0.429652    1.100982
   1 H :    0.148568   -0.033870
   2 H :    0.135945   -0.035062
   3 H :    0.145139   -0.032050
Sum of atomic charges         :    0.0000000

LOEWDIN ATOMIC CHARGES AND SPIN POPULATIONS
-------------------------------------------
   0 C :   -0.135236    0.900116
   1 H :    0.057617    0.029240
   2 H :    0.051408    0.031203
   3 H :    0.026211    0.039441

  Mayer bond orders larger than 0.100000
B(  0-C ,  1-H ) :   0.9782 B(  0-C ,  2-H ) :   0.9810 B(  0-C ,  3-H ) :   0.9802

FINAL SINGLE POINT ENERGY       -39.824820780526

DIPOLE MOMENT
-------------
                                X             Y             Z
Electronic contribution:     -0.08194       0.05052       0.00697
Nuclear contribution   :      0.09590      -0.04704      -0.01005
                        -----------------------------------------
Total Dipole Moment    :      0.01395       0.00347      -0.00308
                        -----------------------------------------
Magnitude (a.u.)       :      0.01471
Magnitude (Debye)      :      0.03738

Rotational constants in cm-1:    11.155428     8.811286     4.923024
Rotational constants in MHz : 334431.303775 264155.693975 147588.543936

                             ****ORCA TERMINATED NORMALLY****
TOTAL RUN TIME: 0 days 0 hours 0 minutes 31 seconds 104 msec
