                         Program Version 5.0.3 -  RELEASE  -
|  1> !B3LYP EPR-III Autoaux
|  2> !PAL4
|  3>
|  4> * xyz 0 2
|  5>  C    -41.9227979479    -62.1582108167    -21.1358922749
|  6>  H    -41.0318884237    -62.8382263682    -21.1238095479
|  7>  H    -41.7328036398    -61.1303855398    -21.0098397260
|  8>  H    -42.8884982916    -62.6712215869    -21.2624069026
|  9> *
| 10>
| 11> %EPRNMR
| 12>         GTENSOR   TRUE
| 13>         NUCLEI    = ALL H {AISO, ADIP, AORB}
| 14>         NUCLEI    = ALL C {AISO, ADIP, AORB}
| 15> END
| 16>
| 17>
| 18>                          ****END OF INPUT****

CARTESIAN COORDINATES (ANGSTROEM)
---------------------------------
  C    -41.922798  -62.158211  -21.135892
  H    -41.031888  -62.838226  -21.123810
  H    -41.732804  -61.130386  -21.009840
  H    -42.888498  -62.671222  -21.262407

 Total Charge           Charge          ....    0
 Multiplicity           Mult            ....    2
 Number of Electrons    NEL             ....    9
 Basis Dimension        Dim             ....   73

ORBITAL ENERGIES
----------------
                 SPIN UP ORBITALS
  NO   OCC          E(Eh)            E(eV)
   0   1.0000     -10.187689      -277.2211
   1   1.0000      -0.685041       -18.6409
   2   1.0000      -0.436481       -11.8773
   3   1.0000      -0.404148       -10.9974
   4   1.0000      -0.234910        -6.3922
   5   0.0000       0.000588         0.0160
   6   0.0000       0.035102         0.9552
   7   0.0000       0.038219         1.0400
   8   0.0000       0.047421         1.2904
   9   0.0000       0.084871         2.3094

                 SPIN DOWN ORBITALS
  NO   OCC          E(Eh)            E(eV)
   0   1.0000     -10.173188      -276.8265
   1   1.0000      -0.645449       -17.5636
   2   1.0000      -0.427133       -11.6229
   3   1.0000      -0.394804       -10.7432
   4   0.0000      -0.077314        -2.1038
   5   0.0000       0.003829         0.1042
   6   0.0000       0.034762         0.9459
   7   0.0000       0.037844         1.0298
   8   0.0000       0.060702         1.6518

MULLIKEN ATOMIC CHARGES AND SPIN POPULATIONS
--------------------------------------------
   0 C :   -0.428192    1.105712
   1 H :    0.132265   -0.037547
   2 H :    0.150125   -0.032321
   3 H :    0.145802   -0.035844
Sum of atomic charges         :   -0.0000000

LOEWDIN ATOMIC CHARGES AND SPIN POPULATIONS
-------------------------------------------
   0 C :   -0.158850    0.912327
   1 H :    0.064953    0.024757
   2 H :    0.035026    0.035494
   3 H :    0.058871    0.027422

  Mayer bond orders larger than 0.100000
B(  0-C ,  1-H ) :   0.9777 B(  0-C ,  2-H ) :   0.9756 B(  0-C ,  3-H ) :   0.9753

FINAL SINGLE POINT ENERGY       -39.825699926813

DIPOLE MOMENT
-------------
                                X             Y             Z
Electronic contribution:     -0.08112       0.11975      -0.00346
Nuclear contribution   :      0.08634      -0.12381       0.00871
                        -----------------------------------------
Total Dipole Moment    :      0.00522      -0.00407       0.00525
                        -----------------------------------------
Magnitude (a.u.)       :      0.00845
Magnitude (Debye)      :      0.02148

Rotational constants in cm-1:     9.929102     8.850955     4.679778
Rotational constants in MHz : 297666.991578 265344.947085 140296.211977

                             ****ORCA TERMINATED NORMALLY****
TOTAL RUN TIME: 0 days 0 hours 0 minutes 20 seconds 395 msec
