                         Program Version 5.0.3 -  RELEASE  -
|  1> !B3LYP EPR-III Autoaux
|  2> !PAL4
|  3>
|  4> * xyz 0 2
|  5>  C    -89.8252147458   -118.5497957618    -32.6147726131
|  6>  H    -90.9093837110   -118.3977511337    -32.6419082987
|  7>  H    -89.5180020699   -119.5866610907    -32.6805185821
|  8>  H    -89.2033416754   -117.5638087968    -32.4923975602
|  9> *
| 10>
| 11> %EPRNMR
| 12>         GTENSOR   TRUE
| 13>         NUCLEI    = ALL H {AISO, ADIP, AORB}
| 14>         NUCLEI    = ALL C {AISO, ADIP, AORB}
| 15> END
| 16>
| 17>
| 18>                          ****END OF INPUT****

CARTESIAN COORDINATES (ANGSTROEM)
---------------------------------
  C    -89.825215  -118.549796  -32.614773
  H    -90.909384  -118.397751  -32.641908
  H    -89.518002  -119.586661  -32.680519
  H    -89.203342  -117.563809  -32.492398

 Total Charge           Charge          ....    0
 Multiplicity           Mult            ....    2
 Number of Electrons    NEL             ....    9
 Basis Dimension        Dim             ....   73

ORBITAL ENERGIES
----------------
                 SPIN UP ORBITALS
  NO   OCC          E(Eh)            E(eV)
   0   1.0000     -10.194873      -277.4166
   1   1.0000      -0.679239       -18.4830
   2   1.0000      -0.427460       -11.6318
   3   1.0000      -0.401105       -10.9146
   4   1.0000      -0.234957        -6.3935
   5   0.0000      -0.000815        -0.0222
   6   0.0000       0.034630         0.9423
   7   0.0000       0.038339         1.0433
   8   0.0000       0.047289         1.2868
   9   0.0000       0.074363         2.0235

                 SPIN DOWN ORBITALS
  NO   OCC          E(Eh)            E(eV)
   0   1.0000     -10.180210      -277.0176
   1   1.0000      -0.639474       -17.4010
   2   1.0000      -0.418595       -11.3905
   3   1.0000      -0.391645       -10.6572
   4   0.0000      -0.076999        -2.0953
   5   0.0000       0.002795         0.0761
   6   0.0000       0.034419         0.9366
   7   0.0000       0.038001         1.0340
   8   0.0000       0.060647         1.6503

MULLIKEN ATOMIC CHARGES AND SPIN POPULATIONS
--------------------------------------------
   0 C :   -0.430839    1.111569
   1 H :    0.134920   -0.036105
   2 H :    0.150152   -0.034544
   3 H :    0.145767   -0.040921
Sum of atomic charges         :    0.0000000

LOEWDIN ATOMIC CHARGES AND SPIN POPULATIONS
-------------------------------------------
   0 C :   -0.181340    0.923579
   1 H :    0.048769    0.029299
   2 H :    0.046937    0.030691
   3 H :    0.085634    0.016431

  Mayer bond orders larger than 0.100000
B(  0-C ,  1-H ) :   0.9743 B(  0-C ,  2-H ) :   0.9720 B(  0-C ,  3-H ) :   0.9703

FINAL SINGLE POINT ENERGY       -39.821145655089

DIPOLE MOMENT
-------------
                                X             Y             Z
Electronic contribution:      0.09236      -0.07776      -0.01566
Nuclear contribution   :     -0.11623       0.07582       0.02210
                        -----------------------------------------
Total Dipole Moment    :     -0.02387      -0.00194       0.00645
                        -----------------------------------------
Magnitude (a.u.)       :      0.02480
Magnitude (Debye)      :      0.06305

Rotational constants in cm-1:    10.336934     7.862969     4.466389
Rotational constants in MHz : 309893.493621 235725.866592 133898.969611

                             ****ORCA TERMINATED NORMALLY****
TOTAL RUN TIME: 0 days 0 hours 0 minutes 18 seconds 961 msec
