                         Program Version 5.0.3 -  RELEASE  -
|  1> !B3LYP EPR-III Autoaux
|  2> !PAL4
|  3>
|  4> * xyz 0 2
|  5>  C      7.6690960940     -6.1945971244     -8.4028458471
|  6>  H      7.3863680368     -5.6996019958     -7.4156713263
|  7>  H      6.8721362740     -6.0936303368     -9.0354411736
|  8>  H      8.6210460055     -6.5763735767     -8.7438282500
|  9> *
| 10>
| 11> %EPRNMR
| 12>         GTENSOR   TRUE
| 13>         NUCLEI    = ALL H {AISO, ADIP, AORB}
| 14>         NUCLEI    = ALL C {AISO, ADIP, AORB}
| 15> END
| 16>
| 17>
| 18>                          ****END OF INPUT****

CARTESIAN COORDINATES (ANGSTROEM)
---------------------------------
  C      7.669096   -6.194597   -8.402846
  H      7.386368   -5.699602   -7.415671
  H      6.872136   -6.093630   -9.035441
  H      8.621046   -6.576374   -8.743828

 Total Charge           Charge          ....    0
 Multiplicity           Mult            ....    2
 Number of Electrons    NEL             ....    9
 Basis Dimension        Dim             ....   73

ORBITAL ENERGIES
----------------
                 SPIN UP ORBITALS
  NO   OCC          E(Eh)            E(eV)
   0   1.0000     -10.184282      -277.1284
   1   1.0000      -0.689782       -18.7699
   2   1.0000      -0.439706       -11.9650
   3   1.0000      -0.403105       -10.9690
   4   1.0000      -0.235541        -6.4094
   5   0.0000       0.000506         0.0138
   6   0.0000       0.034564         0.9405
   7   0.0000       0.038780         1.0553
   8   0.0000       0.047443         1.2910
   9   0.0000       0.079684         2.1683

                 SPIN DOWN ORBITALS
  NO   OCC          E(Eh)            E(eV)
   0   1.0000     -10.169812      -276.7347
   1   1.0000      -0.650610       -17.7040
   2   1.0000      -0.430340       -11.7101
   3   1.0000      -0.393251       -10.7009
   4   0.0000      -0.077775        -2.1164
   5   0.0000       0.003686         0.1003
   6   0.0000       0.034258         0.9322
   7   0.0000       0.038381         1.0444
   8   0.0000       0.060667         1.6508

MULLIKEN ATOMIC CHARGES AND SPIN POPULATIONS
--------------------------------------------
   0 C :   -0.431158    1.104008
   1 H :    0.137524   -0.039217
   2 H :    0.141733   -0.032019
   3 H :    0.151900   -0.032773
Sum of atomic charges         :    0.0000000

LOEWDIN ATOMIC CHARGES AND SPIN POPULATIONS
-------------------------------------------
   0 C :   -0.148927    0.907373
   1 H :    0.077632    0.021264
   2 H :    0.018266    0.040978
   3 H :    0.053030    0.030385

  Mayer bond orders larger than 0.100000
B(  0-C ,  1-H ) :   0.9785 B(  0-C ,  2-H ) :   0.9779 B(  0-C ,  3-H ) :   0.9762

FINAL SINGLE POINT ENERGY       -39.820284605901

DIPOLE MOMENT
-------------
                                X             Y             Z
Electronic contribution:      0.08313      -0.12077      -0.04426
Nuclear contribution   :     -0.09574       0.16053       0.01019
                        -----------------------------------------
Total Dipole Moment    :     -0.01261       0.03976      -0.03407
                        -----------------------------------------
Magnitude (a.u.)       :      0.05386
Magnitude (Debye)      :      0.13689

Rotational constants in cm-1:    11.495721     8.117540     4.774062
Rotational constants in MHz : 344633.031382 243357.719314 143122.775710

                             ****ORCA TERMINATED NORMALLY****
TOTAL RUN TIME: 0 days 0 hours 0 minutes 18 seconds 164 msec
