                         Program Version 5.0.3 -  RELEASE  -
|  1> !B3LYP EPR-III Autoaux
|  2> !PAL4
|  3>
|  4> * xyz 0 2
|  5>  C    -50.2653533016    -71.4963648856    -23.2294094797
|  6>  H    -49.3143641115    -70.9207546672    -23.2231405906
|  7>  H    -51.2296369346    -70.8597869588    -23.0504868605
|  8>  H    -50.1447319590    -72.5685671691    -23.3267907524
|  9> *
| 10>
| 11> %EPRNMR
| 12>         GTENSOR   TRUE
| 13>         NUCLEI    = ALL H {AISO, ADIP, AORB}
| 14>         NUCLEI    = ALL C {AISO, ADIP, AORB}
| 15> END
| 16>
| 17>
| 18>                          ****END OF INPUT****

CARTESIAN COORDINATES (ANGSTROEM)
---------------------------------
  C    -50.265353  -71.496365  -23.229409
  H    -49.314364  -70.920755  -23.223141
  H    -51.229637  -70.859787  -23.050487
  H    -50.144732  -72.568567  -23.326791

 Total Charge           Charge          ....    0
 Multiplicity           Mult            ....    2
 Number of Electrons    NEL             ....    9
 Basis Dimension        Dim             ....   73

ORBITAL ENERGIES
----------------
                 SPIN UP ORBITALS
  NO   OCC          E(Eh)            E(eV)
   0   1.0000     -10.196307      -277.4556
   1   1.0000      -0.677772       -18.4431
   2   1.0000      -0.426389       -11.6026
   3   1.0000      -0.400625       -10.9016
   4   1.0000      -0.235147        -6.3987
   5   0.0000      -0.000919        -0.0250
   6   0.0000       0.034816         0.9474
   7   0.0000       0.038198         1.0394
   8   0.0000       0.047261         1.2860
   9   0.0000       0.075520         2.0550

                 SPIN DOWN ORBITALS
  NO   OCC          E(Eh)            E(eV)
   0   1.0000     -10.181615      -277.0558
   1   1.0000      -0.637933       -17.3590
   2   1.0000      -0.417481       -11.3602
   3   1.0000      -0.391329       -10.6486
   4   0.0000      -0.077060        -2.0969
   5   0.0000       0.002722         0.0741
   6   0.0000       0.034601         0.9415
   7   0.0000       0.037876         1.0307
   8   0.0000       0.060623         1.6496

MULLIKEN ATOMIC CHARGES AND SPIN POPULATIONS
--------------------------------------------
   0 C :   -0.429680    1.111689
   1 H :    0.134481   -0.036938
   2 H :    0.145472   -0.040389
   3 H :    0.149727   -0.034362
Sum of atomic charges         :   -0.0000000

LOEWDIN ATOMIC CHARGES AND SPIN POPULATIONS
-------------------------------------------
   0 C :   -0.184975    0.925475
   1 H :    0.055677    0.026662
   2 H :    0.083532    0.017029
   3 H :    0.045767    0.030834

  Mayer bond orders larger than 0.100000
B(  0-C ,  1-H ) :   0.9737 B(  0-C ,  2-H ) :   0.9697 B(  0-C ,  3-H ) :   0.9713

FINAL SINGLE POINT ENERGY       -39.821509170724

DIPOLE MOMENT
-------------
                                X             Y             Z
Electronic contribution:     -0.06116      -0.10250      -0.04469
Nuclear contribution   :      0.08044       0.10492       0.06581
                        -----------------------------------------
Total Dipole Moment    :      0.01928       0.00242       0.02112
                        -----------------------------------------
Magnitude (a.u.)       :      0.02870
Magnitude (Debye)      :      0.07294

Rotational constants in cm-1:    10.010109     7.945042     4.433536
Rotational constants in MHz : 300095.512912 238186.372271 132914.077995

                             ****ORCA TERMINATED NORMALLY****
TOTAL RUN TIME: 0 days 0 hours 0 minutes 24 seconds 448 msec
