                         Program Version 5.0.3 -  RELEASE  -
|  1> !B3LYP EPR-III Autoaux
|  2> !PAL4
|  3>
|  4> * xyz 0 2
|  5>  C     -1.3036645123    -16.3933810925    -10.7400212688
|  6>  H     -2.0860623883    -16.3771007381    -11.4179764501
|  7>  H     -1.0343042460    -17.4242718714    -10.4361055698
|  8>  H     -0.8980215220    -15.5604366347    -10.2394808286
|  9> *
| 10>
| 11> %EPRNMR
| 12>         GTENSOR   TRUE
| 13>         NUCLEI    = ALL H {AISO, ADIP, AORB}
| 14>         NUCLEI    = ALL C {AISO, ADIP, AORB}
| 15> END
| 16>
| 17>
| 18>                          ****END OF INPUT****

CARTESIAN COORDINATES (ANGSTROEM)
---------------------------------
  C     -1.303665  -16.393381  -10.740021
  H     -2.086062  -16.377101  -11.417976
  H     -1.034304  -17.424272  -10.436106
  H     -0.898022  -15.560437  -10.239481

 Total Charge           Charge          ....    0
 Multiplicity           Mult            ....    2
 Number of Electrons    NEL             ....    9
 Basis Dimension        Dim             ....   73

ORBITAL ENERGIES
----------------
                 SPIN UP ORBITALS
  NO   OCC          E(Eh)            E(eV)
   0   1.0000     -10.179813      -277.0068
   1   1.0000      -0.692376       -18.8405
   2   1.0000      -0.441536       -12.0148
   3   1.0000      -0.409856       -11.1527
   4   1.0000      -0.235637        -6.4120
   5   0.0000       0.001361         0.0370
   6   0.0000       0.035426         0.9640
   7   0.0000       0.038222         1.0401
   8   0.0000       0.047537         1.2935
   9   0.0000       0.089300         2.4300

                 SPIN DOWN ORBITALS
  NO   OCC          E(Eh)            E(eV)
   0   1.0000     -10.165440      -276.6157
   1   1.0000      -0.653223       -17.7751
   2   1.0000      -0.431826       -11.7506
   3   1.0000      -0.400221       -10.8906
   4   0.0000      -0.078009        -2.1227
   5   0.0000       0.004337         0.1180
   6   0.0000       0.035042         0.9535
   7   0.0000       0.037806         1.0287
   8   0.0000       0.060718         1.6522

MULLIKEN ATOMIC CHARGES AND SPIN POPULATIONS
--------------------------------------------
   0 C :   -0.426820    1.099189
   1 H :    0.145070   -0.031633
   2 H :    0.133151   -0.036242
   3 H :    0.148598   -0.031314
Sum of atomic charges         :    0.0000000

LOEWDIN ATOMIC CHARGES AND SPIN POPULATIONS
-------------------------------------------
   0 C :   -0.135105    0.900488
   1 H :    0.029878    0.038183
   2 H :    0.064829    0.026370
   3 H :    0.040397    0.034959

  Mayer bond orders larger than 0.100000
B(  0-C ,  1-H ) :   0.9797 B(  0-C ,  2-H ) :   0.9807 B(  0-C ,  3-H ) :   0.9790

FINAL SINGLE POINT ENERGY       -39.825201433525

DIPOLE MOMENT
-------------
                                X             Y             Z
Electronic contribution:      0.04094       0.13057      -0.06548
Nuclear contribution   :     -0.08049      -0.13616       0.09481
                        -----------------------------------------
Total Dipole Moment    :     -0.03955      -0.00559       0.02933
                        -----------------------------------------
Magnitude (a.u.)       :      0.04956
Magnitude (Debye)      :      0.12596

Rotational constants in cm-1:    10.503600     9.189048     4.923341
Rotational constants in MHz : 314889.993196 275480.731353 147598.038172

                             ****ORCA TERMINATED NORMALLY****
TOTAL RUN TIME: 0 days 0 hours 0 minutes 24 seconds 532 msec
