                         Program Version 5.0.3 -  RELEASE  -
|  1> !B3LYP EPR-III Autoaux
|  2> !PAL4
|  3>
|  4> * xyz 0 2
|  5>  C    -58.4242239307    -80.5919445345    -25.2906329162
|  6>  H    -58.2116483956    -79.5518276536    -25.2179856115
|  7>  H    -59.4333370346    -80.8062344988    -25.3019224659
|  8>  H    -57.6452094091    -81.3300487434    -25.3286163296
|  9> *
| 10>
| 11> %EPRNMR
| 12>         GTENSOR   TRUE
| 13>         NUCLEI    = ALL H {AISO, ADIP, AORB}
| 14>         NUCLEI    = ALL C {AISO, ADIP, AORB}
| 15> END
| 16>
| 17>
| 18>                          ****END OF INPUT****

CARTESIAN COORDINATES (ANGSTROEM)
---------------------------------
  C    -58.424224  -80.591945  -25.290633
  H    -58.211648  -79.551828  -25.217986
  H    -59.433337  -80.806234  -25.301922
  H    -57.645209  -81.330049  -25.328616

 Total Charge           Charge          ....    0
 Multiplicity           Mult            ....    2
 Number of Electrons    NEL             ....    9
 Basis Dimension        Dim             ....   73

ORBITAL ENERGIES
----------------
                 SPIN UP ORBITALS
  NO   OCC          E(Eh)            E(eV)
   0   1.0000     -10.176793      -276.9246
   1   1.0000      -0.694396       -18.8955
   2   1.0000      -0.436361       -11.8740
   3   1.0000      -0.419264       -11.4087
   4   1.0000      -0.234597        -6.3837
   5   0.0000       0.001671         0.0455
   6   0.0000       0.035850         0.9755
   7   0.0000       0.037784         1.0282
   8   0.0000       0.047616         1.2957
   9   0.0000       0.091990         2.5032

                 SPIN DOWN ORBITALS
  NO   OCC          E(Eh)            E(eV)
   0   1.0000     -10.162499      -276.5357
   1   1.0000      -0.655235       -17.8298
   2   1.0000      -0.426780       -11.6133
   3   1.0000      -0.409385       -11.1399
   4   0.0000      -0.077503        -2.1090
   5   0.0000       0.004609         0.1254
   6   0.0000       0.035452         0.9647
   7   0.0000       0.037328         1.0157
   8   0.0000       0.060813         1.6548

MULLIKEN ATOMIC CHARGES AND SPIN POPULATIONS
--------------------------------------------
   0 C :   -0.428441    1.098950
   1 H :    0.138497   -0.033855
   2 H :    0.143975   -0.031793
   3 H :    0.145968   -0.033303
Sum of atomic charges         :    0.0000000

LOEWDIN ATOMIC CHARGES AND SPIN POPULATIONS
-------------------------------------------
   0 C :   -0.128215    0.896714
   1 H :    0.046292    0.033274
   2 H :    0.029434    0.038750
   3 H :    0.052489    0.031262

  Mayer bond orders larger than 0.100000
B(  0-C ,  1-H ) :   0.9814 B(  0-C ,  2-H ) :   0.9809 B(  0-C ,  3-H ) :   0.9798

FINAL SINGLE POINT ENERGY       -39.826166047369

DIPOLE MOMENT
-------------
                                X             Y             Z
Electronic contribution:      0.00480      -0.05893      -0.01194
Nuclear contribution   :     -0.01313       0.06575       0.01752
                        -----------------------------------------
Total Dipole Moment    :     -0.00833       0.00682       0.00558
                        -----------------------------------------
Magnitude (a.u.)       :      0.01213
Magnitude (Debye)      :      0.03083

Rotational constants in cm-1:    10.879881     9.228757     4.993518
Rotational constants in MHz : 326170.618489 276671.165523 149701.912655

                             ****ORCA TERMINATED NORMALLY****
TOTAL RUN TIME: 0 days 0 hours 0 minutes 19 seconds 365 msec
