                         Program Version 5.0.3 -  RELEASE  -
|  1> !B3LYP EPR-III Autoaux
|  2> !PAL4
|  3>
|  4> * xyz 0 2
|  5>  C    -55.4990385427    -77.2968851918    -24.5537122962
|  6>  H    -55.0599331590    -78.3345036415    -24.6094176001
|  7>  H    -54.7260570124    -76.5534101608    -24.4546213297
|  8>  H    -56.6305159336    -77.2298974113    -24.5679617051
|  9> *
| 10>
| 11> %EPRNMR
| 12>         GTENSOR   TRUE
| 13>         NUCLEI    = ALL H {AISO, ADIP, AORB}
| 14>         NUCLEI    = ALL C {AISO, ADIP, AORB}
| 15> END
| 16>
| 17>
| 18>                          ****END OF INPUT****

CARTESIAN COORDINATES (ANGSTROEM)
---------------------------------
  C    -55.499039  -77.296885  -24.553712
  H    -55.059933  -78.334504  -24.609418
  H    -54.726057  -76.553410  -24.454621
  H    -56.630516  -77.229897  -24.567962

 Total Charge           Charge          ....    0
 Multiplicity           Mult            ....    2
 Number of Electrons    NEL             ....    9
 Basis Dimension        Dim             ....   73

ORBITAL ENERGIES
----------------
                 SPIN UP ORBITALS
  NO   OCC          E(Eh)            E(eV)
   0   1.0000     -10.194030      -277.3937
   1   1.0000      -0.679839       -18.4994
   2   1.0000      -0.433178       -11.7874
   3   1.0000      -0.397184       -10.8079
   4   1.0000      -0.235070        -6.3966
   5   0.0000      -0.000423        -0.0115
   6   0.0000       0.034402         0.9361
   7   0.0000       0.038631         1.0512
   8   0.0000       0.047302         1.2871
   9   0.0000       0.077654         2.1131

                 SPIN DOWN ORBITALS
  NO   OCC          E(Eh)            E(eV)
   0   1.0000     -10.179393      -276.9954
   1   1.0000      -0.640095       -17.4179
   2   1.0000      -0.424232       -11.5439
   3   1.0000      -0.387777       -10.5519
   4   0.0000      -0.077153        -2.0994
   5   0.0000       0.003082         0.0839
   6   0.0000       0.034149         0.9292
   7   0.0000       0.038277         1.0416
   8   0.0000       0.060641         1.6501

MULLIKEN ATOMIC CHARGES AND SPIN POPULATIONS
--------------------------------------------
   0 C :   -0.431128    1.110716
   1 H :    0.130040   -0.038274
   2 H :    0.150155   -0.034700
   3 H :    0.150933   -0.037742
Sum of atomic charges         :    0.0000000

LOEWDIN ATOMIC CHARGES AND SPIN POPULATIONS
-------------------------------------------
   0 C :   -0.179207    0.922046
   1 H :    0.063694    0.024020
   2 H :    0.044097    0.031672
   3 H :    0.071416    0.022262

  Mayer bond orders larger than 0.100000
B(  0-C ,  1-H ) :   0.9757 B(  0-C ,  2-H ) :   0.9728 B(  0-C ,  3-H ) :   0.9707

FINAL SINGLE POINT ENERGY       -39.822369311156

DIPOLE MOMENT
-------------
                                X             Y             Z
Electronic contribution:     -0.05144       0.15791      -0.01006
Nuclear contribution   :      0.06042      -0.17025       0.02184
                        -----------------------------------------
Total Dipole Moment    :      0.00897      -0.01233       0.01177
                        -----------------------------------------
Magnitude (a.u.)       :      0.01927
Magnitude (Debye)      :      0.04898

Rotational constants in cm-1:    10.223476     8.046787     4.504026
Rotational constants in MHz : 306492.097369 241236.617857 135027.298766

                             ****ORCA TERMINATED NORMALLY****
TOTAL RUN TIME: 0 days 0 hours 0 minutes 20 seconds 463 msec
