                         Program Version 5.0.3 -  RELEASE  -
|  1> !B3LYP EPR-III Autoaux
|  2> !PAL4
|  3>
|  4> * xyz 0 2
|  5>  C    -84.2941827609   -111.6662776862    -31.4105568451
|  6>  H    -84.2795818815   -112.7352580823    -31.4964612196
|  7>  H    -83.3311770373   -111.1782692201    -31.3164691708
|  8>  H    -85.2043192455   -111.0745116957    -31.3938043400
|  9> *
| 10>
| 11> %EPRNMR
| 12>         GTENSOR   TRUE
| 13>         NUCLEI    = ALL H {AISO, ADIP, AORB}
| 14>         NUCLEI    = ALL C {AISO, ADIP, AORB}
| 15> END
| 16>
| 17>
| 18>                          ****END OF INPUT****

CARTESIAN COORDINATES (ANGSTROEM)
---------------------------------
  C    -84.294183  -111.666278  -31.410557
  H    -84.279582  -112.735258  -31.496461
  H    -83.331177  -111.178269  -31.316469
  H    -85.204319  -111.074512  -31.393804

 Total Charge           Charge          ....    0
 Multiplicity           Mult            ....    2
 Number of Electrons    NEL             ....    9
 Basis Dimension        Dim             ....   73

ORBITAL ENERGIES
----------------
                 SPIN UP ORBITALS
  NO   OCC          E(Eh)            E(eV)
   0   1.0000     -10.184289      -277.1286
   1   1.0000      -0.687317       -18.7028
   2   1.0000      -0.428652       -11.6642
   3   1.0000      -0.416771       -11.3409
   4   1.0000      -0.234638        -6.3848
   5   0.0000       0.001028         0.0280
   6   0.0000       0.036092         0.9821
   7   0.0000       0.037450         1.0191
   8   0.0000       0.047502         1.2926
   9   0.0000       0.089728         2.4416

                 SPIN DOWN ORBITALS
  NO   OCC          E(Eh)            E(eV)
   0   1.0000     -10.169862      -276.7360
   1   1.0000      -0.647856       -17.6291
   2   1.0000      -0.419295       -11.4096
   3   1.0000      -0.407224       -11.0811
   4   0.0000      -0.077264        -2.1025
   5   0.0000       0.004162         0.1133
   6   0.0000       0.035720         0.9720
   7   0.0000       0.037045         1.0080
   8   0.0000       0.060768         1.6536

MULLIKEN ATOMIC CHARGES AND SPIN POPULATIONS
--------------------------------------------
   0 C :   -0.426901    1.103081
   1 H :    0.143181   -0.033916
   2 H :    0.138980   -0.034829
   3 H :    0.144741   -0.034336
Sum of atomic charges         :   -0.0000000

LOEWDIN ATOMIC CHARGES AND SPIN POPULATIONS
-------------------------------------------
   0 C :   -0.150365    0.907627
   1 H :    0.046204    0.032129
   2 H :    0.050969    0.030419
   3 H :    0.053191    0.029825

  Mayer bond orders larger than 0.100000
B(  0-C ,  1-H ) :   0.9775 B(  0-C ,  2-H ) :   0.9779 B(  0-C ,  3-H ) :   0.9768

FINAL SINGLE POINT ENERGY       -39.828485965098

DIPOLE MOMENT
-------------
                                X             Y             Z
Electronic contribution:     -0.04481      -0.00955      -0.01261
Nuclear contribution   :      0.05057       0.00809       0.01869
                        -----------------------------------------
Total Dipole Moment    :      0.00575      -0.00146       0.00608
                        -----------------------------------------
Magnitude (a.u.)       :      0.00850
Magnitude (Debye)      :      0.02160

Rotational constants in cm-1:     9.992492     9.140562     4.774093
Rotational constants in MHz : 299567.366227 274027.156362 143123.711881

                             ****ORCA TERMINATED NORMALLY****
TOTAL RUN TIME: 0 days 0 hours 0 minutes 19 seconds 907 msec
