                         Program Version 5.0.3 -  RELEASE  -
|  1> !B3LYP EPR-III Autoaux
|  2> !PAL4
|  3>
|  4> * xyz 0 2
|  5>  C    -87.8600732474   -116.0740139846    -32.2104347956
|  6>  H    -87.6126702973   -115.0118067345    -32.1128192420
|  7>  H    -88.9120148957   -116.4040683114    -32.2901564189
|  8>  H    -87.0383910242   -116.7101171821    -32.2290151861
|  9> *
| 10>
| 11> %EPRNMR
| 12>         GTENSOR   TRUE
| 13>         NUCLEI    = ALL H {AISO, ADIP, AORB}
| 14>         NUCLEI    = ALL C {AISO, ADIP, AORB}
| 15> END
| 16>
| 17>
| 18>                          ****END OF INPUT****

CARTESIAN COORDINATES (ANGSTROEM)
---------------------------------
  C    -87.860073  -116.074014  -32.210435
  H    -87.612670  -115.011807  -32.112819
  H    -88.912015  -116.404068  -32.290156
  H    -87.038391  -116.710117  -32.229015

 Total Charge           Charge          ....    0
 Multiplicity           Mult            ....    2
 Number of Electrons    NEL             ....    9
 Basis Dimension        Dim             ....   73

ORBITAL ENERGIES
----------------
                 SPIN UP ORBITALS
  NO   OCC          E(Eh)            E(eV)
   0   1.0000     -10.183958      -277.1196
   1   1.0000      -0.688193       -18.7267
   2   1.0000      -0.430989       -11.7278
   3   1.0000      -0.414463       -11.2781
   4   1.0000      -0.234691        -6.3863
   5   0.0000       0.000965         0.0263
   6   0.0000       0.035863         0.9759
   7   0.0000       0.037625         1.0238
   8   0.0000       0.047497         1.2925
   9   0.0000       0.087811         2.3895

                 SPIN DOWN ORBITALS
  NO   OCC          E(Eh)            E(eV)
   0   1.0000     -10.169529      -276.7270
   1   1.0000      -0.648777       -17.6541
   2   1.0000      -0.421516       -11.4700
   3   1.0000      -0.404958       -11.0195
   4   0.0000      -0.077295        -2.1033
   5   0.0000       0.004105         0.1117
   6   0.0000       0.035510         0.9663
   7   0.0000       0.037216         1.0127
   8   0.0000       0.060757         1.6533

MULLIKEN ATOMIC CHARGES AND SPIN POPULATIONS
--------------------------------------------
   0 C :   -0.427725    1.103304
   1 H :    0.137131   -0.035717
   2 H :    0.144922   -0.035545
   3 H :    0.145672   -0.032043
Sum of atomic charges         :    0.0000000

LOEWDIN ATOMIC CHARGES AND SPIN POPULATIONS
-------------------------------------------
   0 C :   -0.148503    0.907071
   1 H :    0.056561    0.028570
   2 H :    0.063000    0.026516
   3 H :    0.028942    0.037843

  Mayer bond orders larger than 0.100000
B(  0-C ,  1-H ) :   0.9784 B(  0-C ,  2-H ) :   0.9764 B(  0-C ,  3-H ) :   0.9777

FINAL SINGLE POINT ENERGY       -39.826461570835

DIPOLE MOMENT
-------------
                                X             Y             Z
Electronic contribution:     -0.00316      -0.07069      -0.00165
Nuclear contribution   :      0.01285       0.07199      -0.00051
                        -----------------------------------------
Total Dipole Moment    :      0.00969       0.00130      -0.00216
                        -----------------------------------------
Magnitude (a.u.)       :      0.01002
Magnitude (Debye)      :      0.02546

Rotational constants in cm-1:    10.356411     8.869329     4.777745
Rotational constants in MHz : 310477.388022 265895.787661 143233.184102

                             ****ORCA TERMINATED NORMALLY****
TOTAL RUN TIME: 0 days 0 hours 0 minutes 21 seconds 586 msec
