                         Program Version 5.0.3 -  RELEASE  -
|  1> !B3LYP EPR-III Autoaux
|  2> !PAL4
|  3>
|  4> * xyz 0 2
|  5>  C    -85.8275224807   -113.5430747376    -31.7606429569
|  6>  H    -84.8159812678   -113.9143795123    -31.7620341823
|  7>  H    -85.9614283399   -112.4592058531    -31.6781513130
|  8>  H    -86.5242290146   -114.2838999836    -31.8576858594
|  9> *
| 10>
| 11> %EPRNMR
| 12>         GTENSOR   TRUE
| 13>         NUCLEI    = ALL H {AISO, ADIP, AORB}
| 14>         NUCLEI    = ALL C {AISO, ADIP, AORB}
| 15> END
| 16>
| 17>
| 18>                          ****END OF INPUT****

CARTESIAN COORDINATES (ANGSTROEM)
---------------------------------
  C    -85.827522  -113.543075  -31.760643
  H    -84.815981  -113.914380  -31.762034
  H    -85.961428  -112.459206  -31.678151
  H    -86.524229  -114.283900  -31.857686

 Total Charge           Charge          ....    0
 Multiplicity           Mult            ....    2
 Number of Electrons    NEL             ....    9
 Basis Dimension        Dim             ....   73

ORBITAL ENERGIES
----------------
                 SPIN UP ORBITALS
  NO   OCC          E(Eh)            E(eV)
   0   1.0000     -10.179412      -276.9959
   1   1.0000      -0.692802       -18.8521
   2   1.0000      -0.440907       -11.9977
   3   1.0000      -0.410612       -11.1733
   4   1.0000      -0.234774        -6.3885
   5   0.0000       0.001373         0.0374
   6   0.0000       0.035137         0.9561
   7   0.0000       0.038318         1.0427
   8   0.0000       0.047558         1.2941
   9   0.0000       0.086811         2.3622

                 SPIN DOWN ORBITALS
  NO   OCC          E(Eh)            E(eV)
   0   1.0000     -10.165063      -276.6054
   1   1.0000      -0.653589       -17.7851
   2   1.0000      -0.431352       -11.7377
   3   1.0000      -0.400827       -10.9070
   4   0.0000      -0.077525        -2.1096
   5   0.0000       0.004379         0.1192
   6   0.0000       0.034774         0.9463
   7   0.0000       0.037875         1.0306
   8   0.0000       0.060767         1.6535

MULLIKEN ATOMIC CHARGES AND SPIN POPULATIONS
--------------------------------------------
   0 C :   -0.429771    1.101101
   1 H :    0.133350   -0.034954
   2 H :    0.146890   -0.035095
   3 H :    0.149531   -0.031051
Sum of atomic charges         :   -0.0000000

LOEWDIN ATOMIC CHARGES AND SPIN POPULATIONS
-------------------------------------------
   0 C :   -0.135242    0.900337
   1 H :    0.050605    0.031369
   2 H :    0.061758    0.027767
   3 H :    0.022879    0.040527

  Mayer bond orders larger than 0.100000
B(  0-C ,  1-H ) :   0.9811 B(  0-C ,  2-H ) :   0.9784 B(  0-C ,  3-H ) :   0.9799

FINAL SINGLE POINT ENERGY       -39.824207826406

DIPOLE MOMENT
-------------
                                X             Y             Z
Electronic contribution:     -0.12419       0.01203       0.00572
Nuclear contribution   :      0.13560      -0.02118      -0.01195
                        -----------------------------------------
Total Dipole Moment    :      0.01141      -0.00915      -0.00623
                        -----------------------------------------
Magnitude (a.u.)       :      0.01590
Magnitude (Debye)      :      0.04042

Rotational constants in cm-1:    10.955832     8.916564     4.916093
Rotational constants in MHz : 328447.582437 267311.875005 147380.747321

                             ****ORCA TERMINATED NORMALLY****
TOTAL RUN TIME: 0 days 0 hours 0 minutes 24 seconds 295 msec
