                         Program Version 5.0.3 -  RELEASE  -
|  1> !B3LYP EPR-III Autoaux
|  2> !PAL4
|  3>
|  4> * xyz 0 2
|  5>  C    -16.0063111380    -33.0661175710    -14.5355740875
|  6>  H    -16.4651136487    -33.9913884833    -14.0383138702
|  7>  H    -15.0755283641    -32.9386041449    -14.9185476793
|  8>  H    -16.6251884890    -32.2553303469    -14.6743088511
|  9> *
| 10>
| 11> %EPRNMR
| 12>         GTENSOR   TRUE
| 13>         NUCLEI    = ALL H {AISO, ADIP, AORB}
| 14>         NUCLEI    = ALL C {AISO, ADIP, AORB}
| 15> END
| 16>
| 17>
| 18>                          ****END OF INPUT****

CARTESIAN COORDINATES (ANGSTROEM)
---------------------------------
  C    -16.006311  -33.066118  -14.535574
  H    -16.465114  -33.991388  -14.038314
  H    -15.075528  -32.938604  -14.918548
  H    -16.625188  -32.255330  -14.674309

 Total Charge           Charge          ....    0
 Multiplicity           Mult            ....    2
 Number of Electrons    NEL             ....    9
 Basis Dimension        Dim             ....   73

ORBITAL ENERGIES
----------------
                 SPIN UP ORBITALS
  NO   OCC          E(Eh)            E(eV)
   0   1.0000     -10.178483      -276.9706
   1   1.0000      -0.694980       -18.9114
   2   1.0000      -0.436127       -11.8676
   3   1.0000      -0.415156       -11.2970
   4   1.0000      -0.234874        -6.3912
   5   0.0000       0.001151         0.0313
   6   0.0000       0.035324         0.9612
   7   0.0000       0.038032         1.0349
   8   0.0000       0.047556         1.2941
   9   0.0000       0.081632         2.2213

                 SPIN DOWN ORBITALS
  NO   OCC          E(Eh)            E(eV)
   0   1.0000     -10.164126      -276.5799
   1   1.0000      -0.655895       -17.8478
   2   1.0000      -0.426451       -11.6043
   3   1.0000      -0.405291       -11.0285
   4   0.0000      -0.077546        -2.1101
   5   0.0000       0.004197         0.1142
   6   0.0000       0.035015         0.9528
   7   0.0000       0.037602         1.0232
   8   0.0000       0.060758         1.6533

MULLIKEN ATOMIC CHARGES AND SPIN POPULATIONS
--------------------------------------------
   0 C :   -0.431354    1.101240
   1 H :    0.142967   -0.038654
   2 H :    0.149360   -0.030495
   3 H :    0.139026   -0.032091
Sum of atomic charges         :    0.0000000

LOEWDIN ATOMIC CHARGES AND SPIN POPULATIONS
-------------------------------------------
   0 C :   -0.130368    0.898989
   1 H :    0.084032    0.019734
   2 H :    0.019761    0.041785
   3 H :    0.026575    0.039492

  Mayer bond orders larger than 0.100000
B(  0-C ,  1-H ) :   0.9777 B(  0-C ,  2-H ) :   0.9806 B(  0-C ,  3-H ) :   0.9807

FINAL SINGLE POINT ENERGY       -39.819193588946

DIPOLE MOMENT
-------------
                                X             Y             Z
Electronic contribution:      0.09677       0.00660      -0.00350
Nuclear contribution   :     -0.11010       0.00977      -0.01832
                        -----------------------------------------
Total Dipole Moment    :     -0.01332       0.01636      -0.02182
                        -----------------------------------------
Magnitude (a.u.)       :      0.03035
Magnitude (Debye)      :      0.07715

Rotational constants in cm-1:    11.566848     8.548100     4.918287
Rotational constants in MHz : 346765.376724 256265.599737 147446.531441

                             ****ORCA TERMINATED NORMALLY****
TOTAL RUN TIME: 0 days 0 hours 0 minutes 40 seconds 215 msec
