                         Program Version 5.0.3 -  RELEASE  -
|  1> !B3LYP EPR-III Autoaux
|  2> !PAL4
|  3>
|  4> * xyz 0 2
|  5>  C    -38.1015390627    -57.9108920825    -20.1720315570
|  6>  H    -38.6536184246    -57.0136493228    -20.1713238126
|  7>  H    -38.5765636900    -58.8793696955    -20.1534989379
|  8>  H    -37.0689886472    -57.7748693894    -20.0754536897
|  9> *
| 10>
| 11> %EPRNMR
| 12>         GTENSOR   TRUE
| 13>         NUCLEI    = ALL H {AISO, ADIP, AORB}
| 14>         NUCLEI    = ALL C {AISO, ADIP, AORB}
| 15> END
| 16>
| 17>
| 18>                          ****END OF INPUT****

CARTESIAN COORDINATES (ANGSTROEM)
---------------------------------
  C    -38.101539  -57.910892  -20.172032
  H    -38.653618  -57.013649  -20.171324
  H    -38.576564  -58.879370  -20.153499
  H    -37.068989  -57.774869  -20.075454

 Total Charge           Charge          ....    0
 Multiplicity           Mult            ....    2
 Number of Electrons    NEL             ....    9
 Basis Dimension        Dim             ....   73

ORBITAL ENERGIES
----------------
                 SPIN UP ORBITALS
  NO   OCC          E(Eh)            E(eV)
   0   1.0000     -10.177745      -276.9505
   1   1.0000      -0.693550       -18.8725
   2   1.0000      -0.433388       -11.7931
   3   1.0000      -0.420702       -11.4479
   4   1.0000      -0.234955        -6.3935
   5   0.0000       0.001593         0.0434
   6   0.0000       0.036023         0.9802
   7   0.0000       0.037678         1.0253
   8   0.0000       0.047598         1.2952
   9   0.0000       0.091580         2.4920

                 SPIN DOWN ORBITALS
  NO   OCC          E(Eh)            E(eV)
   0   1.0000     -10.163427      -276.5609
   1   1.0000      -0.654425       -17.8078
   2   1.0000      -0.423882       -11.5344
   3   1.0000      -0.410767       -11.1775
   4   0.0000      -0.077663        -2.1133
   5   0.0000       0.004538         0.1235
   6   0.0000       0.035632         0.9696
   7   0.0000       0.037227         1.0130
   8   0.0000       0.060791         1.6542

MULLIKEN ATOMIC CHARGES AND SPIN POPULATIONS
--------------------------------------------
   0 C :   -0.427525    1.098699
   1 H :    0.140329   -0.032886
   2 H :    0.145164   -0.033412
   3 H :    0.142033   -0.032401
Sum of atomic charges         :    0.0000000

LOEWDIN ATOMIC CHARGES AND SPIN POPULATIONS
-------------------------------------------
   0 C :   -0.131117    0.898019
   1 H :    0.040345    0.035093
   2 H :    0.054251    0.030546
   3 H :    0.036521    0.036342

  Mayer bond orders larger than 0.100000
B(  0-C ,  1-H ) :   0.9808 B(  0-C ,  2-H ) :   0.9794 B(  0-C ,  3-H ) :   0.9807

FINAL SINGLE POINT ENERGY       -39.826815784391

DIPOLE MOMENT
-------------
                                X             Y             Z
Electronic contribution:     -0.00172      -0.03850      -0.05329
Nuclear contribution   :      0.00408       0.04856       0.08680
                        -----------------------------------------
Total Dipole Moment    :      0.00236       0.01006       0.03352
                        -----------------------------------------
Magnitude (a.u.)       :      0.03507
Magnitude (Debye)      :      0.08915

Rotational constants in cm-1:    10.765573     9.205647     4.972872
Rotational constants in MHz : 322743.768590 275978.346926 149082.960432

                             ****ORCA TERMINATED NORMALLY****
TOTAL RUN TIME: 0 days 0 hours 0 minutes 32 seconds 570 msec
