                         Program Version 5.0.3 -  RELEASE  -
|  1> !B3LYP EPR-III Autoaux
|  2> !PAL4
|  3>
|  4> * xyz 0 2
|  5>  C    -11.5519153962    -28.0191826535    -13.3740049978
|  6>  H    -12.3637633722    -28.6863361982    -13.3675030991
|  7>  H    -10.5451386195    -28.2960357807    -12.9428204125
|  8>  H    -11.5317032159    -27.0662191354    -13.9243411046
|  9> *
| 10>
| 11> %EPRNMR
| 12>         GTENSOR   TRUE
| 13>         NUCLEI    = ALL H {AISO, ADIP, AORB}
| 14>         NUCLEI    = ALL C {AISO, ADIP, AORB}
| 15> END
| 16>
| 17>
| 18>                          ****END OF INPUT****

CARTESIAN COORDINATES (ANGSTROEM)
---------------------------------
  C    -11.551915  -28.019183  -13.374005
  H    -12.363763  -28.686336  -13.367503
  H    -10.545139  -28.296036  -12.942820
  H    -11.531703  -27.066219  -13.924341

 Total Charge           Charge          ....    0
 Multiplicity           Mult            ....    2
 Number of Electrons    NEL             ....    9
 Basis Dimension        Dim             ....   73

ORBITAL ENERGIES
----------------
                 SPIN UP ORBITALS
  NO   OCC          E(Eh)            E(eV)
   0   1.0000     -10.188425      -277.2411
   1   1.0000      -0.684575       -18.6282
   2   1.0000      -0.435265       -11.8442
   3   1.0000      -0.404245       -11.0001
   4   1.0000      -0.235580        -6.4105
   5   0.0000       0.000497         0.0135
   6   0.0000       0.035324         0.9612
   7   0.0000       0.038116         1.0372
   8   0.0000       0.047393         1.2896
   9   0.0000       0.085551         2.3280

                 SPIN DOWN ORBITALS
  NO   OCC          E(Eh)            E(eV)
   0   1.0000     -10.173895      -276.8457
   1   1.0000      -0.645055       -17.5528
   2   1.0000      -0.425815       -11.5870
   3   1.0000      -0.394973       -10.7478
   4   0.0000      -0.077655        -2.1131
   5   0.0000       0.003733         0.1016
   6   0.0000       0.034986         0.9520
   7   0.0000       0.037763         1.0276
   8   0.0000       0.060653         1.6504

MULLIKEN ATOMIC CHARGES AND SPIN POPULATIONS
--------------------------------------------
   0 C :   -0.426507    1.104468
   1 H :    0.150518   -0.031178
   2 H :    0.135471   -0.037614
   3 H :    0.140518   -0.035675
Sum of atomic charges         :   -0.0000000

LOEWDIN ATOMIC CHARGES AND SPIN POPULATIONS
-------------------------------------------
   0 C :   -0.159946    0.913020
   1 H :    0.033565    0.035939
   2 H :    0.069200    0.023283
   3 H :    0.057180    0.027758

  Mayer bond orders larger than 0.100000
B(  0-C ,  1-H ) :   0.9751 B(  0-C ,  2-H ) :   0.9766 B(  0-C ,  3-H ) :   0.9760

FINAL SINGLE POINT ENERGY       -39.825590556398

DIPOLE MOMENT
-------------
                                X             Y             Z
Electronic contribution:     -0.14658      -0.02156       0.04644
Nuclear contribution   :      0.16124       0.00671      -0.08443
                        -----------------------------------------
Total Dipole Moment    :      0.01466      -0.01485      -0.03799
                        -----------------------------------------
Magnitude (a.u.)       :      0.04334
Magnitude (Debye)      :      0.11017

Rotational constants in cm-1:     9.659984     8.977141     4.669473
Rotational constants in MHz : 289599.020639 269127.903385 139987.265160

                             ****ORCA TERMINATED NORMALLY****
TOTAL RUN TIME: 0 days 0 hours 0 minutes 22 seconds 296 msec
