                         Program Version 5.0.3 -  RELEASE  -
|  1> !B3LYP EPR-III Autoaux
|  2> !PAL4
|  3>
|  4> * xyz 0 2
|  5>  C    -31.4996210755    -50.5085524615    -18.5040301548
|  6>  H    -32.1796861601    -49.6702867470    -18.6026994152
|  7>  H    -31.9704970663    -51.5708535247    -18.4835315911
|  8>  H    -30.4531068913    -50.2573680028    -18.4066316349
|  9> *
| 10>
| 11> %EPRNMR
| 12>         GTENSOR   TRUE
| 13>         NUCLEI    = ALL H {AISO, ADIP, AORB}
| 14>         NUCLEI    = ALL C {AISO, ADIP, AORB}
| 15> END
| 16>
| 17>
| 18>                          ****END OF INPUT****

CARTESIAN COORDINATES (ANGSTROEM)
---------------------------------
  C    -31.499621  -50.508552  -18.504030
  H    -32.179686  -49.670287  -18.602699
  H    -31.970497  -51.570854  -18.483532
  H    -30.453107  -50.257368  -18.406632

 Total Charge           Charge          ....    0
 Multiplicity           Mult            ....    2
 Number of Electrons    NEL             ....    9
 Basis Dimension        Dim             ....   73

ORBITAL ENERGIES
----------------
                 SPIN UP ORBITALS
  NO   OCC          E(Eh)            E(eV)
   0   1.0000     -10.192527      -277.3528
   1   1.0000      -0.680883       -18.5278
   2   1.0000      -0.424094       -11.5402
   3   1.0000      -0.408567       -11.1177
   4   1.0000      -0.234850        -6.3906
   5   0.0000      -0.000291        -0.0079
   6   0.0000       0.035493         0.9658
   7   0.0000       0.037698         1.0258
   8   0.0000       0.047343         1.2883
   9   0.0000       0.078709         2.1418

                 SPIN DOWN ORBITALS
  NO   OCC          E(Eh)            E(eV)
   0   1.0000     -10.177919      -276.9553
   1   1.0000      -0.641165       -17.4470
   2   1.0000      -0.415008       -11.2929
   3   1.0000      -0.399224       -10.8634
   4   0.0000      -0.077029        -2.0961
   5   0.0000       0.003192         0.0868
   6   0.0000       0.035237         0.9589
   7   0.0000       0.037349         1.0163
   8   0.0000       0.060683         1.6513

MULLIKEN ATOMIC CHARGES AND SPIN POPULATIONS
--------------------------------------------
   0 C :   -0.428295    1.109169
   1 H :    0.138463   -0.035075
   2 H :    0.142907   -0.039816
   3 H :    0.146925   -0.034278
Sum of atomic charges         :    0.0000000

LOEWDIN ATOMIC CHARGES AND SPIN POPULATIONS
-------------------------------------------
   0 C :   -0.173580    0.919898
   1 H :    0.045557    0.030916
   2 H :    0.081984    0.018032
   3 H :    0.046039    0.031154

  Mayer bond orders larger than 0.100000
B(  0-C ,  1-H ) :   0.9746 B(  0-C ,  2-H ) :   0.9719 B(  0-C ,  3-H ) :   0.9734

FINAL SINGLE POINT ENERGY       -39.823797036353

DIPOLE MOMENT
-------------
                                X             Y             Z
Electronic contribution:      0.07243      -0.00352      -0.00740
Nuclear contribution   :     -0.07827       0.02035       0.01441
                        -----------------------------------------
Total Dipole Moment    :     -0.00584       0.01683       0.00701
                        -----------------------------------------
Magnitude (a.u.)       :      0.01914
Magnitude (Debye)      :      0.04866

Rotational constants in cm-1:    10.111658     8.202644     4.529434
Rotational constants in MHz : 303139.886393 245909.085216 135789.012134

                             ****ORCA TERMINATED NORMALLY****
TOTAL RUN TIME: 0 days 0 hours 0 minutes 25 seconds 750 msec
