                         Program Version 5.0.3 -  RELEASE  -
|  1> !B3LYP EPR-III Autoaux
|  2> !PAL4
|  3>
|  4> * xyz 0 2
|  5>  C    -37.1323300233    -56.8325226544    -19.9247289854
|  6>  H    -36.8821733529    -55.7402918634    -19.9094243807
|  7>  H    -38.0933771968    -56.9261325845    -19.7478699523
|  8>  H    -36.3549665842    -57.5589560895    -20.0314087844
|  9> *
| 10>
| 11> %EPRNMR
| 12>         GTENSOR   TRUE
| 13>         NUCLEI    = ALL H {AISO, ADIP, AORB}
| 14>         NUCLEI    = ALL C {AISO, ADIP, AORB}
| 15> END
| 16>
| 17>
| 18>                          ****END OF INPUT****

CARTESIAN COORDINATES (ANGSTROEM)
---------------------------------
  C    -37.132330  -56.832523  -19.924729
  H    -36.882173  -55.740292  -19.909424
  H    -38.093377  -56.926133  -19.747870
  H    -36.354967  -57.558956  -20.031409

 Total Charge           Charge          ....    0
 Multiplicity           Mult            ....    2
 Number of Electrons    NEL             ....    9
 Basis Dimension        Dim             ....   73

ORBITAL ENERGIES
----------------
                 SPIN UP ORBITALS
  NO   OCC          E(Eh)            E(eV)
   0   1.0000     -10.177208      -276.9359
   1   1.0000      -0.696777       -18.9603
   2   1.0000      -0.452368       -12.3096
   3   1.0000      -0.402154       -10.9432
   4   1.0000      -0.235429        -6.4064
   5   0.0000       0.001370         0.0373
   6   0.0000       0.034481         0.9383
   7   0.0000       0.038869         1.0577
   8   0.0000       0.047540         1.2936
   9   0.0000       0.087979         2.3940

                 SPIN DOWN ORBITALS
  NO   OCC          E(Eh)            E(eV)
   0   1.0000     -10.162872      -276.5458
   1   1.0000      -0.657703       -17.8970
   2   1.0000      -0.442466       -12.0401
   3   1.0000      -0.392445       -10.6790
   4   0.0000      -0.077986        -2.1221
   5   0.0000       0.004318         0.1175
   6   0.0000       0.034127         0.9286
   7   0.0000       0.038436         1.0459
   8   0.0000       0.060691         1.6515

MULLIKEN ATOMIC CHARGES AND SPIN POPULATIONS
--------------------------------------------
   0 C :   -0.431651    1.100278
   1 H :    0.126796   -0.037910
   2 H :    0.153142   -0.029771
   3 H :    0.151712   -0.032598
Sum of atomic charges         :    0.0000000

LOEWDIN ATOMIC CHARGES AND SPIN POPULATIONS
-------------------------------------------
   0 C :   -0.123906    0.896207
   1 H :    0.071800    0.024395
   2 H :    0.000173    0.047691
   3 H :    0.051933    0.031707

  Mayer bond orders larger than 0.100000
B(  0-C ,  1-H ) :   0.9832 B(  0-C ,  2-H ) :   0.9808 B(  0-C ,  3-H ) :   0.9795

FINAL SINGLE POINT ENERGY       -39.816604358987

DIPOLE MOMENT
-------------
                                X             Y             Z
Electronic contribution:     -0.05690      -0.19897      -0.03667
Nuclear contribution   :      0.04982       0.20400       0.06407
                        -----------------------------------------
Total Dipole Moment    :     -0.00708       0.00503       0.02740
                        -----------------------------------------
Magnitude (a.u.)       :      0.02874
Magnitude (Debye)      :      0.07306

Rotational constants in cm-1:    11.437700     8.816137     4.984765
Rotational constants in MHz : 342893.620028 264301.143198 149439.486980

                             ****ORCA TERMINATED NORMALLY****
TOTAL RUN TIME: 0 days 0 hours 0 minutes 32 seconds 688 msec
