                         Program Version 5.0.3 -  RELEASE  -
|  1> !B3LYP EPR-III Autoaux
|  2> !PAL4
|  3>
|  4> * xyz 0 2
|  5>  C    -55.8087133781    -77.6789407256    -24.6332301546
|  6>  H    -55.1962257555    -78.5182766463    -24.7253822953
|  7>  H    -55.4979937542    -76.6667099974    -24.5328103483
|  8>  H    -56.8631291266    -77.7257369120    -24.6857182488
|  9> *
| 10>
| 11> %EPRNMR
| 12>         GTENSOR   TRUE
| 13>         NUCLEI    = ALL H {AISO, ADIP, AORB}
| 14>         NUCLEI    = ALL C {AISO, ADIP, AORB}
| 15> END
| 16>
| 17>
| 18>                          ****END OF INPUT****

CARTESIAN COORDINATES (ANGSTROEM)
---------------------------------
  C    -55.808713  -77.678941  -24.633230
  H    -55.196226  -78.518277  -24.725382
  H    -55.497994  -76.666710  -24.532810
  H    -56.863129  -77.725737  -24.685718

 Total Charge           Charge          ....    0
 Multiplicity           Mult            ....    2
 Number of Electrons    NEL             ....    9
 Basis Dimension        Dim             ....   73

ORBITAL ENERGIES
----------------
                 SPIN UP ORBITALS
  NO   OCC          E(Eh)            E(eV)
   0   1.0000     -10.176361      -276.9129
   1   1.0000      -0.695061       -18.9136
   2   1.0000      -0.444921       -12.1069
   3   1.0000      -0.411300       -11.1921
   4   1.0000      -0.234798        -6.3892
   5   0.0000       0.001702         0.0463
   6   0.0000       0.035077         0.9545
   7   0.0000       0.038484         1.0472
   8   0.0000       0.047610         1.2955
   9   0.0000       0.090640         2.4664

                 SPIN DOWN ORBITALS
  NO   OCC          E(Eh)            E(eV)
   0   1.0000     -10.162073      -276.5241
   1   1.0000      -0.655938       -17.8490
   2   1.0000      -0.435333       -11.8460
   3   1.0000      -0.401375       -10.9220
   4   0.0000      -0.077666        -2.1134
   5   0.0000       0.004615         0.1256
   6   0.0000       0.034686         0.9439
   7   0.0000       0.038016         1.0345
   8   0.0000       0.060790         1.6542

MULLIKEN ATOMIC CHARGES AND SPIN POPULATIONS
--------------------------------------------
   0 C :   -0.429355    1.098932
   1 H :    0.150875   -0.030847
   2 H :    0.140701   -0.034232
   3 H :    0.137779   -0.033853
Sum of atomic charges         :    0.0000000

LOEWDIN ATOMIC CHARGES AND SPIN POPULATIONS
-------------------------------------------
   0 C :   -0.127203    0.895984
   1 H :    0.037497    0.036328
   2 H :    0.046958    0.033180
   3 H :    0.042748    0.034508

  Mayer bond orders larger than 0.100000
B(  0-C ,  1-H ) :   0.9803 B(  0-C ,  2-H ) :   0.9816 B(  0-C ,  3-H ) :   0.9819

FINAL SINGLE POINT ENERGY       -39.825204092972

DIPOLE MOMENT
-------------
                                X             Y             Z
Electronic contribution:      0.08584      -0.08460       0.01806
Nuclear contribution   :     -0.09834       0.09451      -0.03314
                        -----------------------------------------
Total Dipole Moment    :     -0.01250       0.00991      -0.01508
                        -----------------------------------------
Magnitude (a.u.)       :      0.02195
Magnitude (Debye)      :      0.05580

Rotational constants in cm-1:    11.148200     9.116913     5.017695
Rotational constants in MHz : 334214.614719 273318.161961 150426.715012

                             ****ORCA TERMINATED NORMALLY****
TOTAL RUN TIME: 0 days 0 hours 0 minutes 20 seconds 607 msec
