                         Program Version 5.0.3 -  RELEASE  -
|  1> !B3LYP EPR-III Autoaux
|  2> !PAL4
|  3>
|  4> * xyz 0 2
|  5>  C    -48.8800019576    -69.9567887253    -22.8838592071
|  6>  H    -48.0867642698    -70.6765252164    -22.9310874304
|  7>  H    -48.8341808052    -68.9294926157    -22.7569417161
|  8>  H    -49.8995775058    -70.3560368910    -22.9599331783
|  9> *
| 10>
| 11> %EPRNMR
| 12>         GTENSOR   TRUE
| 13>         NUCLEI    = ALL H {AISO, ADIP, AORB}
| 14>         NUCLEI    = ALL C {AISO, ADIP, AORB}
| 15> END
| 16>
| 17>
| 18>                          ****END OF INPUT****

CARTESIAN COORDINATES (ANGSTROEM)
---------------------------------
  C    -48.880002  -69.956789  -22.883859
  H    -48.086764  -70.676525  -22.931087
  H    -48.834181  -68.929493  -22.756942
  H    -49.899578  -70.356037  -22.959933

 Total Charge           Charge          ....    0
 Multiplicity           Mult            ....    2
 Number of Electrons    NEL             ....    9
 Basis Dimension        Dim             ....   73

ORBITAL ENERGIES
----------------
                 SPIN UP ORBITALS
  NO   OCC          E(Eh)            E(eV)
   0   1.0000     -10.180740      -277.0320
   1   1.0000      -0.691258       -18.8101
   2   1.0000      -0.442105       -12.0303
   3   1.0000      -0.408295       -11.1103
   4   1.0000      -0.234829        -6.3900
   5   0.0000       0.001322         0.0360
   6   0.0000       0.035115         0.9555
   7   0.0000       0.038343         1.0434
   8   0.0000       0.047537         1.2935
   9   0.0000       0.087918         2.3924

                 SPIN DOWN ORBITALS
  NO   OCC          E(Eh)            E(eV)
   0   1.0000     -10.166372      -276.6411
   1   1.0000      -0.651939       -17.7402
   2   1.0000      -0.432557       -11.7705
   3   1.0000      -0.398660       -10.8481
   4   0.0000      -0.077534        -2.1098
   5   0.0000       0.004348         0.1183
   6   0.0000       0.034737         0.9452
   7   0.0000       0.037915         1.0317
   8   0.0000       0.060754         1.6532

MULLIKEN ATOMIC CHARGES AND SPIN POPULATIONS
--------------------------------------------
   0 C :   -0.428738    1.101495
   1 H :    0.147627   -0.033677
   2 H :    0.149156   -0.031708
   3 H :    0.131955   -0.036109
Sum of atomic charges         :   -0.0000000

LOEWDIN ATOMIC CHARGES AND SPIN POPULATIONS
-------------------------------------------
   0 C :   -0.138883    0.902153
   1 H :    0.049603    0.031704
   2 H :    0.030301    0.037975
   3 H :    0.058979    0.028168

  Mayer bond orders larger than 0.100000
B(  0-C ,  1-H ) :   0.9785 B(  0-C ,  2-H ) :   0.9791 B(  0-C ,  3-H ) :   0.9807

FINAL SINGLE POINT ENERGY       -39.825641330239

DIPOLE MOMENT
-------------
                                X             Y             Z
Electronic contribution:      0.12532       0.06698       0.00266
Nuclear contribution   :     -0.13529      -0.06872       0.00271
                        -----------------------------------------
Total Dipole Moment    :     -0.00997      -0.00174       0.00536
                        -----------------------------------------
Magnitude (a.u.)       :      0.01146
Magnitude (Debye)      :      0.02912

Rotational constants in cm-1:    10.497696     9.128702     4.883046
Rotational constants in MHz : 314713.004616 273671.596508 146390.036213

                             ****ORCA TERMINATED NORMALLY****
TOTAL RUN TIME: 0 days 0 hours 0 minutes 17 seconds 939 msec
