                         Program Version 5.0.3 -  RELEASE  -
|  1> !B3LYP EPR-III Autoaux
|  2> !PAL4
|  3>
|  4> * xyz 0 2
|  5>  C    -45.6853361827    -66.4033492553    -22.0851517737
|  6>  H    -46.6858867882    -66.0445778400    -22.0600451287
|  7>  H    -45.5986942104    -67.4280587394    -22.2381353235
|  8>  H    -44.9394901697    -65.6605386386    -21.9509506581
|  9> *
| 10>
| 11> %EPRNMR
| 12>         GTENSOR   TRUE
| 13>         NUCLEI    = ALL H {AISO, ADIP, AORB}
| 14>         NUCLEI    = ALL C {AISO, ADIP, AORB}
| 15> END
| 16>
| 17>
| 18>                          ****END OF INPUT****

CARTESIAN COORDINATES (ANGSTROEM)
---------------------------------
  C    -45.685336  -66.403349  -22.085152
  H    -46.685887  -66.044578  -22.060045
  H    -45.598694  -67.428059  -22.238135
  H    -44.939490  -65.660539  -21.950951

 Total Charge           Charge          ....    0
 Multiplicity           Mult            ....    2
 Number of Electrons    NEL             ....    9
 Basis Dimension        Dim             ....   73

ORBITAL ENERGIES
----------------
                 SPIN UP ORBITALS
  NO   OCC          E(Eh)            E(eV)
   0   1.0000     -10.176386      -276.9135
   1   1.0000      -0.695005       -18.9120
   2   1.0000      -0.443753       -12.0751
   3   1.0000      -0.412398       -11.2219
   4   1.0000      -0.234701        -6.3865
   5   0.0000       0.001694         0.0461
   6   0.0000       0.035119         0.9556
   7   0.0000       0.038416         1.0454
   8   0.0000       0.047613         1.2956
   9   0.0000       0.088687         2.4133

                 SPIN DOWN ORBITALS
  NO   OCC          E(Eh)            E(eV)
   0   1.0000     -10.162099      -276.5248
   1   1.0000      -0.655866       -17.8470
   2   1.0000      -0.434203       -11.8153
   3   1.0000      -0.402444       -10.9511
   4   0.0000      -0.077610        -2.1119
   5   0.0000       0.004612         0.1255
   6   0.0000       0.034724         0.9449
   7   0.0000       0.037952         1.0327
   8   0.0000       0.060796         1.6543

MULLIKEN ATOMIC CHARGES AND SPIN POPULATIONS
--------------------------------------------
   0 C :   -0.429627    1.099131
   1 H :    0.133737   -0.034083
   2 H :    0.148580   -0.031886
   3 H :    0.147310   -0.033161
Sum of atomic charges         :   -0.0000000

LOEWDIN ATOMIC CHARGES AND SPIN POPULATIONS
-------------------------------------------
   0 C :   -0.127458    0.896057
   1 H :    0.045349    0.033613
   2 H :    0.035328    0.037028
   3 H :    0.046781    0.033302

  Mayer bond orders larger than 0.100000
B(  0-C ,  1-H ) :   0.9821 B(  0-C ,  2-H ) :   0.9810 B(  0-C ,  3-H ) :   0.9807

FINAL SINGLE POINT ENERGY       -39.825242167302

DIPOLE MOMENT
-------------
                                X             Y             Z
Electronic contribution:      0.10935      -0.05261      -0.00456
Nuclear contribution   :     -0.12596       0.05761       0.00474
                        -----------------------------------------
Total Dipole Moment    :     -0.01660       0.00500       0.00018
                        -----------------------------------------
Magnitude (a.u.)       :      0.01734
Magnitude (Debye)      :      0.04408

Rotational constants in cm-1:    11.054654     9.177198     5.014408
Rotational constants in MHz : 331410.198460 275125.488893 150328.162809

                             ****ORCA TERMINATED NORMALLY****
TOTAL RUN TIME: 0 days 0 hours 0 minutes 21 seconds 529 msec
