                         Program Version 5.0.3 -  RELEASE  -
|  1> !B3LYP EPR-III Autoaux
|  2> !PAL4
|  3>
|  4> * xyz 0 2
|  5>  C      9.5164096810     -4.1110972680     -7.9415697404
|  6>  H     10.3133258667     -3.8417308492     -8.6070792728
|  7>  H      8.4945380737     -3.5349562779     -8.1277288516
|  8>  H      9.6642643769     -4.6265079627     -6.9600150719
|  9> *
| 10>
| 11> %EPRNMR
| 12>         GTENSOR   TRUE
| 13>         NUCLEI    = ALL H {AISO, ADIP, AORB}
| 14>         NUCLEI    = ALL C {AISO, ADIP, AORB}
| 15> END
| 16>
| 17>
| 18>                          ****END OF INPUT****

CARTESIAN COORDINATES (ANGSTROEM)
---------------------------------
  C      9.516410   -4.111097   -7.941570
  H     10.313326   -3.841731   -8.607079
  H      8.494538   -3.534956   -8.127729
  H      9.664264   -4.626508   -6.960015

 Total Charge           Charge          ....    0
 Multiplicity           Mult            ....    2
 Number of Electrons    NEL             ....    9
 Basis Dimension        Dim             ....   73

ORBITAL ENERGIES
----------------
                 SPIN UP ORBITALS
  NO   OCC          E(Eh)            E(eV)
   0   1.0000     -10.198200      -277.5071
   1   1.0000      -0.677092       -18.4246
   2   1.0000      -0.426587       -11.6080
   3   1.0000      -0.398099       -10.8328
   4   1.0000      -0.237829        -6.4717
   5   0.0000      -0.001085        -0.0295
   6   0.0000       0.035691         0.9712
   7   0.0000       0.037751         1.0273
   8   0.0000       0.047132         1.2825
   9   0.0000       0.079634         2.1669

                 SPIN DOWN ORBITALS
  NO   OCC          E(Eh)            E(eV)
   0   1.0000     -10.183426      -277.1051
   1   1.0000      -0.637542       -17.3484
   2   1.0000      -0.417142       -11.3510
   3   1.0000      -0.389142       -10.5891
   4   0.0000      -0.078569        -2.1380
   5   0.0000       0.002465         0.0671
   6   0.0000       0.035419         0.9638
   7   0.0000       0.037559         1.0220
   8   0.0000       0.060364         1.6426

MULLIKEN ATOMIC CHARGES AND SPIN POPULATIONS
--------------------------------------------
   0 C :   -0.422603    1.105803
   1 H :    0.146446   -0.031923
   2 H :    0.130531   -0.039678
   3 H :    0.145627   -0.034202
Sum of atomic charges         :    0.0000000

LOEWDIN ATOMIC CHARGES AND SPIN POPULATIONS
-------------------------------------------
   0 C :   -0.185228    0.926038
   1 H :    0.038401    0.032998
   2 H :    0.085706    0.015373
   3 H :    0.061121    0.025590

  Mayer bond orders larger than 0.100000
B(  0-C ,  1-H ) :   0.9711 B(  0-C ,  2-H ) :   0.9730 B(  0-C ,  3-H ) :   0.9704

FINAL SINGLE POINT ENERGY       -39.820806207349

DIPOLE MOMENT
-------------
                                X             Y             Z
Electronic contribution:      0.09188      -0.17970      -0.05897
Nuclear contribution   :     -0.05779       0.24740       0.09735
                        -----------------------------------------
Total Dipole Moment    :      0.03409       0.06770       0.03838
                        -----------------------------------------
Magnitude (a.u.)       :      0.08496
Magnitude (Debye)      :      0.21596

Rotational constants in cm-1:     9.138415     8.362580     4.427759
Rotational constants in MHz : 273962.790786 250703.855281 132740.877541

                             ****ORCA TERMINATED NORMALLY****
TOTAL RUN TIME: 0 days 0 hours 0 minutes 23 seconds 137 msec
