                         Program Version 5.0.3 -  RELEASE  -
|  1> !B3LYP EPR-III Autoaux
|  2> !PAL4
|  3>
|  4> * xyz 0 2
|  5>  C    -86.6709195187   -114.5880974924    -31.9444772682
|  6>  H    -85.6444760978   -114.2062802086    -31.8763123020
|  7>  H    -87.4510806912   -113.8030568033    -31.9171238319
|  8>  H    -86.7020839733   -115.7020351846    -32.0416226615
|  9> *
| 10>
| 11> %EPRNMR
| 12>         GTENSOR   TRUE
| 13>         NUCLEI    = ALL H {AISO, ADIP, AORB}
| 14>         NUCLEI    = ALL C {AISO, ADIP, AORB}
| 15> END
| 16>
| 17>
| 18>                          ****END OF INPUT****

CARTESIAN COORDINATES (ANGSTROEM)
---------------------------------
  C    -86.670920  -114.588097  -31.944477
  H    -85.644476  -114.206280  -31.876312
  H    -87.451081  -113.803057  -31.917124
  H    -86.702084  -115.702035  -32.041623

 Total Charge           Charge          ....    0
 Multiplicity           Mult            ....    2
 Number of Electrons    NEL             ....    9
 Basis Dimension        Dim             ....   73

ORBITAL ENERGIES
----------------
                 SPIN UP ORBITALS
  NO   OCC          E(Eh)            E(eV)
   0   1.0000     -10.192432      -277.3502
   1   1.0000      -0.680979       -18.5304
   2   1.0000      -0.432321       -11.7641
   3   1.0000      -0.399846       -10.8804
   4   1.0000      -0.234878        -6.3914
   5   0.0000      -0.000249        -0.0068
   6   0.0000       0.034397         0.9360
   7   0.0000       0.038702         1.0531
   8   0.0000       0.047342         1.2882
   9   0.0000       0.076605         2.0845

                 SPIN DOWN ORBITALS
  NO   OCC          E(Eh)            E(eV)
   0   1.0000     -10.177831      -276.9529
   1   1.0000      -0.641322       -17.4513
   2   1.0000      -0.423529       -11.5248
   3   1.0000      -0.390165       -10.6169
   4   0.0000      -0.077109        -2.0983
   5   0.0000       0.003205         0.0872
   6   0.0000       0.034124         0.9286
   7   0.0000       0.038324         1.0428
   8   0.0000       0.060676         1.6511

MULLIKEN ATOMIC CHARGES AND SPIN POPULATIONS
--------------------------------------------
   0 C :   -0.431956    1.110020
   1 H :    0.132211   -0.036382
   2 H :    0.150761   -0.036212
   3 H :    0.148984   -0.037426
Sum of atomic charges         :    0.0000000

LOEWDIN ATOMIC CHARGES AND SPIN POPULATIONS
-------------------------------------------
   0 C :   -0.176399    0.919988
   1 H :    0.050807    0.028897
   2 H :    0.060305    0.026478
   3 H :    0.065287    0.024637

  Mayer bond orders larger than 0.100000
B(  0-C ,  1-H ) :   0.9760 B(  0-C ,  2-H ) :   0.9725 B(  0-C ,  3-H ) :   0.9726

FINAL SINGLE POINT ENERGY       -39.823464629616

DIPOLE MOMENT
-------------
                                X             Y             Z
Electronic contribution:     -0.13795      -0.03097      -0.00119
Nuclear contribution   :      0.16123       0.03966      -0.00122
                        -----------------------------------------
Total Dipole Moment    :      0.02328       0.00870      -0.00241
                        -----------------------------------------
Magnitude (a.u.)       :      0.02496
Magnitude (Debye)      :      0.06345

Rotational constants in cm-1:    10.546510     7.994142     4.547462
Rotational constants in MHz : 316176.409274 239658.358180 136329.472635

                             ****ORCA TERMINATED NORMALLY****
TOTAL RUN TIME: 0 days 0 hours 0 minutes 22 seconds 30 msec
