                         Program Version 5.0.3 -  RELEASE  -
|  1> !B3LYP EPR-III Autoaux
|  2> !PAL4
|  3>
|  4> * xyz 0 2
|  5>  C    -72.1796471351    -96.8558355294    -28.4999933314
|  6>  H    -71.2999223016    -96.2106976241    -28.4440810725
|  7>  H    -73.1919623220    -96.4765343107    -28.5061568802
|  8>  H    -72.2254460702    -97.9748135015    -28.6043255626
|  9> *
| 10>
| 11> %EPRNMR
| 12>         GTENSOR   TRUE
| 13>         NUCLEI    = ALL H {AISO, ADIP, AORB}
| 14>         NUCLEI    = ALL C {AISO, ADIP, AORB}
| 15> END
| 16>
| 17>
| 18>                          ****END OF INPUT****

CARTESIAN COORDINATES (ANGSTROEM)
---------------------------------
  C    -72.179647  -96.855836  -28.499993
  H    -71.299922  -96.210698  -28.444081
  H    -73.191962  -96.476534  -28.506157
  H    -72.225446  -97.974814  -28.604326

 Total Charge           Charge          ....    0
 Multiplicity           Mult            ....    2
 Number of Electrons    NEL             ....    9
 Basis Dimension        Dim             ....   73

ORBITAL ENERGIES
----------------
                 SPIN UP ORBITALS
  NO   OCC          E(Eh)            E(eV)
   0   1.0000     -10.190302      -277.2922
   1   1.0000      -0.683286       -18.5932
   2   1.0000      -0.435919       -11.8620
   3   1.0000      -0.400391       -10.8952
   4   1.0000      -0.235008        -6.3949
   5   0.0000       0.000092         0.0025
   6   0.0000       0.034524         0.9394
   7   0.0000       0.038625         1.0510
   8   0.0000       0.047277         1.2865
   9   0.0000       0.081287         2.2119

                 SPIN DOWN ORBITALS
  NO   OCC          E(Eh)            E(eV)
   0   1.0000     -10.175792      -276.8974
   1   1.0000      -0.643769       -17.5178
   2   1.0000      -0.426881       -11.6160
   3   1.0000      -0.390857       -10.6358
   4   0.0000      -0.077383        -2.1057
   5   0.0000       0.003437         0.0935
   6   0.0000       0.034207         0.9308
   7   0.0000       0.038212         1.0398
   8   0.0000       0.060576         1.6483

MULLIKEN ATOMIC CHARGES AND SPIN POPULATIONS
--------------------------------------------
   0 C :   -0.431218    1.107361
   1 H :    0.152956   -0.033781
   2 H :    0.138379   -0.035381
   3 H :    0.139883   -0.038199
Sum of atomic charges         :    0.0000000

LOEWDIN ATOMIC CHARGES AND SPIN POPULATIONS
-------------------------------------------
   0 C :   -0.168097    0.915969
   1 H :    0.054924    0.028803
   2 H :    0.045796    0.031261
   3 H :    0.067376    0.023967

  Mayer bond orders larger than 0.100000
B(  0-C ,  1-H ) :   0.9730 B(  0-C ,  2-H ) :   0.9761 B(  0-C ,  3-H ) :   0.9757

FINAL SINGLE POINT ENERGY       -39.824255617414

DIPOLE MOMENT
-------------
                                X             Y             Z
Electronic contribution:      0.11571       0.07429       0.02877
Nuclear contribution   :     -0.13370      -0.07086      -0.04091
                        -----------------------------------------
Total Dipole Moment    :     -0.01799       0.00343      -0.01214
                        -----------------------------------------
Magnitude (a.u.)       :      0.02197
Magnitude (Debye)      :      0.05585

Rotational constants in cm-1:    10.623535     8.156543     4.615253
Rotational constants in MHz : 318485.562725 244527.015238 138361.795680

                             ****ORCA TERMINATED NORMALLY****
TOTAL RUN TIME: 0 days 0 hours 0 minutes 17 seconds 753 msec
