                         Program Version 5.0.3 -  RELEASE  -
|  1> !B3LYP EPR-III Autoaux
|  2> !PAL4
|  3>
|  4> * xyz 0 2
|  5>  C    -93.6657786170   -123.4367466983    -33.4049941463
|  6>  H    -92.5806638611   -123.4713695701    -33.3564964622
|  7>  H    -94.1520143670   -122.4894223152    -33.3521311149
|  8>  H    -94.3371335358   -124.2043152727    -33.4872517850
|  9> *
| 10>
| 11> %EPRNMR
| 12>         GTENSOR   TRUE
| 13>         NUCLEI    = ALL H {AISO, ADIP, AORB}
| 14>         NUCLEI    = ALL C {AISO, ADIP, AORB}
| 15> END
| 16>
| 17>
| 18>                          ****END OF INPUT****

CARTESIAN COORDINATES (ANGSTROEM)
---------------------------------
  C    -93.665779  -123.436747  -33.404994
  H    -92.580664  -123.471370  -33.356496
  H    -94.152014  -122.489422  -33.352131
  H    -94.337134  -124.204315  -33.487252

 Total Charge           Charge          ....    0
 Multiplicity           Mult            ....    2
 Number of Electrons    NEL             ....    9
 Basis Dimension        Dim             ....   73

ORBITAL ENERGIES
----------------
                 SPIN UP ORBITALS
  NO   OCC          E(Eh)            E(eV)
   0   1.0000     -10.177492      -276.9436
   1   1.0000      -0.694429       -18.8964
   2   1.0000      -0.441106       -12.0031
   3   1.0000      -0.412961       -11.2372
   4   1.0000      -0.234704        -6.3866
   5   0.0000       0.001546         0.0421
   6   0.0000       0.035219         0.9583
   7   0.0000       0.038291         1.0420
   8   0.0000       0.047593         1.2951
   9   0.0000       0.088101         2.3974

                 SPIN DOWN ORBITALS
  NO   OCC          E(Eh)            E(eV)
   0   1.0000     -10.163180      -276.5542
   1   1.0000      -0.655295       -17.8315
   2   1.0000      -0.431552       -11.7431
   3   1.0000      -0.403037       -10.9672
   4   0.0000      -0.077554        -2.1104
   5   0.0000       0.004504         0.1226
   6   0.0000       0.034846         0.9482
   7   0.0000       0.037831         1.0294
   8   0.0000       0.060788         1.6541

MULLIKEN ATOMIC CHARGES AND SPIN POPULATIONS
--------------------------------------------
   0 C :   -0.430032    1.100013
   1 H :    0.147525   -0.034303
   2 H :    0.134595   -0.034306
   3 H :    0.147912   -0.031405
Sum of atomic charges         :   -0.0000000

LOEWDIN ATOMIC CHARGES AND SPIN POPULATIONS
-------------------------------------------
   0 C :   -0.130219    0.897658
   1 H :    0.058966    0.029025
   2 H :    0.046394    0.033141
   3 H :    0.024859    0.040176

  Mayer bond orders larger than 0.100000
B(  0-C ,  1-H ) :   0.9792 B(  0-C ,  2-H ) :   0.9817 B(  0-C ,  3-H ) :   0.9808

FINAL SINGLE POINT ENERGY       -39.824216513685

DIPOLE MOMENT
-------------
                                X             Y             Z
Electronic contribution:      0.04153      -0.09963      -0.01086
Nuclear contribution   :     -0.05432       0.10877       0.01432
                        -----------------------------------------
Total Dipole Moment    :     -0.01279       0.00915       0.00345
                        -----------------------------------------
Magnitude (a.u.)       :      0.01610
Magnitude (Debye)      :      0.04093

Rotational constants in cm-1:    11.199690     8.946507     4.973652
Rotational constants in MHz : 335758.244520 268209.529651 149106.342919

                             ****ORCA TERMINATED NORMALLY****
TOTAL RUN TIME: 0 days 0 hours 0 minutes 28 seconds 877 msec
