                         Program Version 5.0.3 -  RELEASE  -
|  1> !B3LYP EPR-III Autoaux
|  2> !PAL4
|  3>
|  4> * xyz 0 2
|  5>  C    -79.4924933989   -105.7874479208    -30.2549155407
|  6>  H    -78.6773532809   -105.1585031281    -30.1727387203
|  7>  H    -80.5057826125   -105.3522166077    -30.2484793260
|  8>  H    -79.5401194622   -106.7728904304    -30.3268077501
|  9> *
| 10>
| 11> %EPRNMR
| 12>         GTENSOR   TRUE
| 13>         NUCLEI    = ALL H {AISO, ADIP, AORB}
| 14>         NUCLEI    = ALL C {AISO, ADIP, AORB}
| 15> END
| 16>
| 17>
| 18>                          ****END OF INPUT****

CARTESIAN COORDINATES (ANGSTROEM)
---------------------------------
  C    -79.492493  -105.787448  -30.254916
  H    -78.677353  -105.158503  -30.172739
  H    -80.505783  -105.352217  -30.248479
  H    -79.540119  -106.772890  -30.326808

 Total Charge           Charge          ....    0
 Multiplicity           Mult            ....    2
 Number of Electrons    NEL             ....    9
 Basis Dimension        Dim             ....   73

ORBITAL ENERGIES
----------------
                 SPIN UP ORBITALS
  NO   OCC          E(Eh)            E(eV)
   0   1.0000     -10.172390      -276.8048
   1   1.0000      -0.699871       -19.0445
   2   1.0000      -0.454889       -12.3782
   3   1.0000      -0.407684       -11.0937
   4   1.0000      -0.235065        -6.3964
   5   0.0000       0.001878         0.0511
   6   0.0000       0.034794         0.9468
   7   0.0000       0.038698         1.0530
   8   0.0000       0.047634         1.2962
   9   0.0000       0.090267         2.4563

                 SPIN DOWN ORBITALS
  NO   OCC          E(Eh)            E(eV)
   0   1.0000     -10.158155      -276.4174
   1   1.0000      -0.660812       -17.9816
   2   1.0000      -0.444894       -12.1062
   3   1.0000      -0.397893       -10.8272
   4   0.0000      -0.077950        -2.1211
   5   0.0000       0.004710         0.1282
   6   0.0000       0.034388         0.9357
   7   0.0000       0.038236         1.0405
   8   0.0000       0.060759         1.6533

MULLIKEN ATOMIC CHARGES AND SPIN POPULATIONS
--------------------------------------------
   0 C :   -0.430904    1.097062
   1 H :    0.150945   -0.030633
   2 H :    0.128731   -0.036635
   3 H :    0.151228   -0.029794
Sum of atomic charges         :    0.0000000

LOEWDIN ATOMIC CHARGES AND SPIN POPULATIONS
-------------------------------------------
   0 C :   -0.110663    0.889399
   1 H :    0.035132    0.037757
   2 H :    0.067028    0.026940
   3 H :    0.008503    0.045904

  Mayer bond orders larger than 0.100000
B(  0-C ,  1-H ) :   0.9823 B(  0-C ,  2-H ) :   0.9842 B(  0-C ,  3-H ) :   0.9828

FINAL SINGLE POINT ENERGY       -39.818344095319

DIPOLE MOMENT
-------------
                                X             Y             Z
Electronic contribution:      0.17610      -0.06577      -0.00776
Nuclear contribution   :     -0.18420       0.05901       0.01253
                        -----------------------------------------
Total Dipole Moment    :     -0.00811      -0.00677       0.00477
                        -----------------------------------------
Magnitude (a.u.)       :      0.01159
Magnitude (Debye)      :      0.02945

Rotational constants in cm-1:    11.230915     9.458919     5.134808
Rotational constants in MHz : 336694.349169 283571.259838 153937.660254

                             ****ORCA TERMINATED NORMALLY****
TOTAL RUN TIME: 0 days 0 hours 0 minutes 26 seconds 700 msec
