                         Program Version 5.0.3 -  RELEASE  -
|  1> !B3LYP EPR-III Autoaux
|  2> !PAL4
|  3>
|  4> * xyz 0 2
|  5>  C    -42.7035593290    -63.0657295006    -21.3314057992
|  6>  H    -41.6383278339    -63.0182763935    -21.3799764993
|  7>  H    -43.4906516698    -62.2411939311    -21.1792134756
|  8>  H    -43.2180521503    -63.9914334057    -21.5317606721
|  9> *
| 10>
| 11> %EPRNMR
| 12>         GTENSOR   TRUE
| 13>         NUCLEI    = ALL H {AISO, ADIP, AORB}
| 14>         NUCLEI    = ALL C {AISO, ADIP, AORB}
| 15> END
| 16>
| 17>
| 18>                          ****END OF INPUT****

CARTESIAN COORDINATES (ANGSTROEM)
---------------------------------
  C    -42.703559  -63.065730  -21.331406
  H    -41.638328  -63.018276  -21.379976
  H    -43.490652  -62.241194  -21.179213
  H    -43.218052  -63.991433  -21.531761

 Total Charge           Charge          ....    0
 Multiplicity           Mult            ....    2
 Number of Electrons    NEL             ....    9
 Basis Dimension        Dim             ....   73

ORBITAL ENERGIES
----------------
                 SPIN UP ORBITALS
  NO   OCC          E(Eh)            E(eV)
   0   1.0000     -10.189704      -277.2760
   1   1.0000      -0.684074       -18.6146
   2   1.0000      -0.438347       -11.9280
   3   1.0000      -0.398047       -10.8314
   4   1.0000      -0.235234        -6.4010
   5   0.0000       0.000065         0.0018
   6   0.0000       0.034289         0.9331
   7   0.0000       0.038841         1.0569
   8   0.0000       0.047364         1.2888
   9   0.0000       0.078087         2.1248

                 SPIN DOWN ORBITALS
  NO   OCC          E(Eh)            E(eV)
   0   1.0000     -10.175147      -276.8798
   1   1.0000      -0.644532       -17.5386
   2   1.0000      -0.429205       -11.6793
   3   1.0000      -0.388501       -10.5717
   4   0.0000      -0.077418        -2.1067
   5   0.0000       0.003412         0.0928
   6   0.0000       0.034006         0.9254
   7   0.0000       0.038472         1.0469
   8   0.0000       0.060650         1.6504

MULLIKEN ATOMIC CHARGES AND SPIN POPULATIONS
--------------------------------------------
   0 C :   -0.431021    1.107676
   1 H :    0.153756   -0.032293
   2 H :    0.140876   -0.040116
   3 H :    0.136389   -0.035267
Sum of atomic charges         :    0.0000000

LOEWDIN ATOMIC CHARGES AND SPIN POPULATIONS
-------------------------------------------
   0 C :   -0.165552    0.915468
   1 H :    0.042695    0.032967
   2 H :    0.078801    0.019780
   3 H :    0.044056    0.031784

  Mayer bond orders larger than 0.100000
B(  0-C ,  1-H ) :   0.9741 B(  0-C ,  2-H ) :   0.9752 B(  0-C ,  3-H ) :   0.9766

FINAL SINGLE POINT ENERGY       -39.822319420975

DIPOLE MOMENT
-------------
                                X             Y             Z
Electronic contribution:      0.16442       0.02288       0.04356
Nuclear contribution   :     -0.17714      -0.04026      -0.07250
                        -----------------------------------------
Total Dipole Moment    :     -0.01272      -0.01738      -0.02894
                        -----------------------------------------
Magnitude (a.u.)       :      0.03608
Magnitude (Debye)      :      0.09170

Rotational constants in cm-1:    10.698222     8.126298     4.623791
Rotational constants in MHz : 320724.613000 243620.272687 138617.757805

                             ****ORCA TERMINATED NORMALLY****
TOTAL RUN TIME: 0 days 0 hours 0 minutes 20 seconds 191 msec
