                         Program Version 5.0.3 -  RELEASE  -
|  1> !B3LYP EPR-III Autoaux
|  2> !PAL4
|  3>
|  4> * xyz 0 2
|  5>  C    -50.5218206271    -71.7882051879    -23.2845873732
|  6>  H    -49.8101085937    -70.9792871388    -23.3125017794
|  7>  H    -51.4865111879    -71.3602816364    -23.1910725675
|  8>  H    -50.1840770904    -72.8189124286    -23.4091623269
|  9> *
| 10>
| 11> %EPRNMR
| 12>         GTENSOR   TRUE
| 13>         NUCLEI    = ALL H {AISO, ADIP, AORB}
| 14>         NUCLEI    = ALL C {AISO, ADIP, AORB}
| 15> END
| 16>
| 17>
| 18>                          ****END OF INPUT****

CARTESIAN COORDINATES (ANGSTROEM)
---------------------------------
  C    -50.521821  -71.788205  -23.284587
  H    -49.810109  -70.979287  -23.312502
  H    -51.486511  -71.360282  -23.191073
  H    -50.184077  -72.818912  -23.409162

 Total Charge           Charge          ....    0
 Multiplicity           Mult            ....    2
 Number of Electrons    NEL             ....    9
 Basis Dimension        Dim             ....   73

ORBITAL ENERGIES
----------------
                 SPIN UP ORBITALS
  NO   OCC          E(Eh)            E(eV)
   0   1.0000     -10.183103      -277.0963
   1   1.0000      -0.689813       -18.7708
   2   1.0000      -0.441793       -12.0218
   3   1.0000      -0.403412       -10.9774
   4   1.0000      -0.234936        -6.3929
   5   0.0000       0.000956         0.0260
   6   0.0000       0.034448         0.9374
   7   0.0000       0.038857         1.0574
   8   0.0000       0.047494         1.2924
   9   0.0000       0.083531         2.2730

                 SPIN DOWN ORBITALS
  NO   OCC          E(Eh)            E(eV)
   0   1.0000     -10.168684      -276.7040
   1   1.0000      -0.650589       -17.7034
   2   1.0000      -0.432553       -11.7704
   3   1.0000      -0.393462       -10.7066
   4   0.0000      -0.077525        -2.1096
   5   0.0000       0.004062         0.1105
   6   0.0000       0.034126         0.9286
   7   0.0000       0.038413         1.0453
   8   0.0000       0.060728         1.6525

MULLIKEN ATOMIC CHARGES AND SPIN POPULATIONS
--------------------------------------------
   0 C :   -0.431201    1.103973
   1 H :    0.132668   -0.035414
   2 H :    0.146063   -0.034417
   3 H :    0.152471   -0.034142
Sum of atomic charges         :    0.0000000

LOEWDIN ATOMIC CHARGES AND SPIN POPULATIONS
-------------------------------------------
   0 C :   -0.148609    0.906006
   1 H :    0.048207    0.031549
   2 H :    0.041474    0.034081
   3 H :    0.058928    0.028365

  Mayer bond orders larger than 0.100000
B(  0-C ,  1-H ) :   0.9802 B(  0-C ,  2-H ) :   0.9790 B(  0-C ,  3-H ) :   0.9762

FINAL SINGLE POINT ENERGY       -39.824035509935

DIPOLE MOMENT
-------------
                                X             Y             Z
Electronic contribution:     -0.05738      -0.13313       0.02623
Nuclear contribution   :      0.06353       0.15449      -0.04420
                        -----------------------------------------
Total Dipole Moment    :      0.00615       0.02136      -0.01797
                        -----------------------------------------
Magnitude (a.u.)       :      0.02858
Magnitude (Debye)      :      0.07265

Rotational constants in cm-1:    11.339113     8.366984     4.817611
Rotational constants in MHz : 339938.054566 250835.864353 144428.352219

                             ****ORCA TERMINATED NORMALLY****
TOTAL RUN TIME: 0 days 0 hours 0 minutes 24 seconds 363 msec
