                         Program Version 5.0.3 -  RELEASE  -
|  1> !B3LYP EPR-III Autoaux
|  2> !PAL4
|  3>
|  4> * xyz 0 2
|  5>  C      8.6668453931     -5.0360404646     -8.1388079260
|  6>  H      8.1921441714     -5.9981045042     -8.1916423981
|  7>  H      9.2304894006     -4.7076781156     -9.0492229340
|  8>  H      8.6763830090     -4.4303301427     -7.2217722291
|  9> *
| 10>
| 11> %EPRNMR
| 12>         GTENSOR   TRUE
| 13>         NUCLEI    = ALL H {AISO, ADIP, AORB}
| 14>         NUCLEI    = ALL C {AISO, ADIP, AORB}
| 15> END
| 16>
| 17>
| 18>                          ****END OF INPUT****

CARTESIAN COORDINATES (ANGSTROEM)
---------------------------------
  C      8.666845   -5.036040   -8.138808
  H      8.192144   -5.998105   -8.191642
  H      9.230489   -4.707678   -9.049223
  H      8.676383   -4.430330   -7.221772

 Total Charge           Charge          ....    0
 Multiplicity           Mult            ....    2
 Number of Electrons    NEL             ....    9
 Basis Dimension        Dim             ....   73

ORBITAL ENERGIES
----------------
                 SPIN UP ORBITALS
  NO   OCC          E(Eh)            E(eV)
   0   1.0000     -10.189448      -277.2690
   1   1.0000      -0.682923       -18.5833
   2   1.0000      -0.425643       -11.5823
   3   1.0000      -0.412396       -11.2219
   4   1.0000      -0.234905        -6.3921
   5   0.0000       0.000400         0.0109
   6   0.0000       0.036099         0.9823
   7   0.0000       0.037349         1.0163
   8   0.0000       0.047407         1.2900
   9   0.0000       0.087300         2.3756

                 SPIN DOWN ORBITALS
  NO   OCC          E(Eh)            E(eV)
   0   1.0000     -10.174914      -276.8735
   1   1.0000      -0.643291       -17.5048
   2   1.0000      -0.416325       -11.3288
   3   1.0000      -0.403137       -10.9699
   4   0.0000      -0.077208        -2.1009
   5   0.0000       0.003702         0.1007
   6   0.0000       0.035756         0.9730
   7   0.0000       0.036993         1.0066
   8   0.0000       0.060712         1.6521

MULLIKEN ATOMIC CHARGES AND SPIN POPULATIONS
--------------------------------------------
   0 C :   -0.426409    1.105971
   1 H :    0.143476   -0.033919
   2 H :    0.138086   -0.036996
   3 H :    0.144847   -0.035056
Sum of atomic charges         :   -0.0000000

LOEWDIN ATOMIC CHARGES AND SPIN POPULATIONS
-------------------------------------------
   0 C :   -0.164731    0.915069
   1 H :    0.043619    0.032201
   2 H :    0.064642    0.024786
   3 H :    0.056470    0.027944

  Mayer bond orders larger than 0.100000
B(  0-C ,  1-H ) :   0.9752 B(  0-C ,  2-H ) :   0.9755 B(  0-C ,  3-H ) :   0.9744

FINAL SINGLE POINT ENERGY       -39.827351427650

DIPOLE MOMENT
-------------
                                X             Y             Z
Electronic contribution:     -0.05746       0.00580       0.04004
Nuclear contribution   :      0.07381      -0.02098      -0.03464
                        -----------------------------------------
Total Dipole Moment    :      0.01635      -0.01518       0.00541
                        -----------------------------------------
Magnitude (a.u.)       :      0.02295
Magnitude (Debye)      :      0.05834

Rotational constants in cm-1:     9.629775     8.894887     4.628203
Rotational constants in MHz : 288693.384228 266662.012748 138750.030018

                             ****ORCA TERMINATED NORMALLY****
TOTAL RUN TIME: 0 days 0 hours 0 minutes 22 seconds 893 msec
