                         Program Version 5.0.3 -  RELEASE  -
|  1> !B3LYP EPR-III Autoaux
|  2> !PAL4
|  3>
|  4> * xyz 0 2
|  5>  C    -63.4146132085    -86.3126582543    -26.4916491896
|  6>  H    -62.5712112549    -87.0440553255    -26.5594959088
|  7>  H    -63.2500546998    -85.2521374445    -26.3427885278
|  8>  H    -64.4377170591    -86.8096167195    -26.5429780577
|  9> *
| 10>
| 11> %EPRNMR
| 12>         GTENSOR   TRUE
| 13>         NUCLEI    = ALL H {AISO, ADIP, AORB}
| 14>         NUCLEI    = ALL C {AISO, ADIP, AORB}
| 15> END
| 16>
| 17>
| 18>                          ****END OF INPUT****

CARTESIAN COORDINATES (ANGSTROEM)
---------------------------------
  C    -63.414613  -86.312658  -26.491649
  H    -62.571211  -87.044055  -26.559496
  H    -63.250055  -85.252137  -26.342789
  H    -64.437717  -86.809617  -26.542978

 Total Charge           Charge          ....    0
 Multiplicity           Mult            ....    2
 Number of Electrons    NEL             ....    9
 Basis Dimension        Dim             ....   73

ORBITAL ENERGIES
----------------
                 SPIN UP ORBITALS
  NO   OCC          E(Eh)            E(eV)
   0   1.0000     -10.194192      -277.3981
   1   1.0000      -0.678957       -18.4754
   2   1.0000      -0.428866       -11.6700
   3   1.0000      -0.402479       -10.9520
   4   1.0000      -0.234991        -6.3944
   5   0.0000      -0.000280        -0.0076
   6   0.0000       0.035275         0.9599
   7   0.0000       0.037952         1.0327
   8   0.0000       0.047314         1.2875
   9   0.0000       0.082939         2.2569

                 SPIN DOWN ORBITALS
  NO   OCC          E(Eh)            E(eV)
   0   1.0000     -10.179558      -276.9999
   1   1.0000      -0.639099       -17.3908
   2   1.0000      -0.419762       -11.4223
   3   1.0000      -0.393354       -10.7037
   4   0.0000      -0.077084        -2.0976
   5   0.0000       0.003212         0.0874
   6   0.0000       0.034976         0.9518
   7   0.0000       0.037630         1.0240
   8   0.0000       0.060662         1.6507

MULLIKEN ATOMIC CHARGES AND SPIN POPULATIONS
--------------------------------------------
   0 C :   -0.427743    1.109601
   1 H :    0.138448   -0.037273
   2 H :    0.150056   -0.033729
   3 H :    0.139238   -0.038599
Sum of atomic charges         :   -0.0000000

LOEWDIN ATOMIC CHARGES AND SPIN POPULATIONS
-------------------------------------------
   0 C :   -0.178219    0.922095
   1 H :    0.061033    0.025258
   2 H :    0.046957    0.030671
   3 H :    0.070229    0.021976

  Mayer bond orders larger than 0.100000
B(  0-C ,  1-H ) :   0.9736 B(  0-C ,  2-H ) :   0.9718 B(  0-C ,  3-H ) :   0.9731

FINAL SINGLE POINT ENERGY       -39.824907153122

DIPOLE MOMENT
-------------
                                X             Y             Z
Electronic contribution:      0.01531       0.11900      -0.00921
Nuclear contribution   :     -0.01135      -0.12579       0.02225
                        -----------------------------------------
Total Dipole Moment    :      0.00396      -0.00679       0.01304
                        -----------------------------------------
Magnitude (a.u.)       :      0.01522
Magnitude (Debye)      :      0.03869

Rotational constants in cm-1:     9.504914     8.530981     4.497438
Rotational constants in MHz : 284950.148109 255752.385367 134829.788621

                             ****ORCA TERMINATED NORMALLY****
TOTAL RUN TIME: 0 days 0 hours 0 minutes 36 seconds 276 msec
