                         Program Version 5.0.3 -  RELEASE  -
|  1> !B3LYP EPR-III Autoaux
|  2> !PAL4
|  3>
|  4> * xyz 0 2
|  5>  C    -89.0928706169   -117.6074524731    -32.4640529248
|  6>  H    -89.9275767637   -116.9224541997    -32.4412916777
|  7>  H    -89.3229185473   -118.6595614910    -32.5600773373
|  8>  H    -88.0340558674   -117.3429008763    -32.3867190671
|  9> *
| 10>
| 11> %EPRNMR
| 12>         GTENSOR   TRUE
| 13>         NUCLEI    = ALL H {AISO, ADIP, AORB}
| 14>         NUCLEI    = ALL C {AISO, ADIP, AORB}
| 15> END
| 16>
| 17>
| 18>                          ****END OF INPUT****

CARTESIAN COORDINATES (ANGSTROEM)
---------------------------------
  C    -89.092871  -117.607452  -32.464053
  H    -89.927577  -116.922454  -32.441292
  H    -89.322919  -118.659561  -32.560077
  H    -88.034056  -117.342901  -32.386719

 Total Charge           Charge          ....    0
 Multiplicity           Mult            ....    2
 Number of Electrons    NEL             ....    9
 Basis Dimension        Dim             ....   73

ORBITAL ENERGIES
----------------
                 SPIN UP ORBITALS
  NO   OCC          E(Eh)            E(eV)
   0   1.0000     -10.185648      -277.1656
   1   1.0000      -0.686236       -18.6734
   2   1.0000      -0.429878       -11.6976
   3   1.0000      -0.413367       -11.2483
   4   1.0000      -0.234666        -6.3856
   5   0.0000       0.000850         0.0231
   6   0.0000       0.035735         0.9724
   7   0.0000       0.037743         1.0270
   8   0.0000       0.047477         1.2919
   9   0.0000       0.086640         2.3576

                 SPIN DOWN ORBITALS
  NO   OCC          E(Eh)            E(eV)
   0   1.0000     -10.171194      -276.7723
   1   1.0000      -0.646743       -17.5988
   2   1.0000      -0.420639       -11.4462
   3   1.0000      -0.403776       -10.9873
   4   0.0000      -0.077233        -2.1016
   5   0.0000       0.004029         0.1096
   6   0.0000       0.035380         0.9627
   7   0.0000       0.037340         1.0161
   8   0.0000       0.060755         1.6532

MULLIKEN ATOMIC CHARGES AND SPIN POPULATIONS
--------------------------------------------
   0 C :   -0.427446    1.104189
   1 H :    0.145620   -0.034158
   2 H :    0.137425   -0.034868
   3 H :    0.144400   -0.035163
Sum of atomic charges         :   -0.0000000

LOEWDIN ATOMIC CHARGES AND SPIN POPULATIONS
-------------------------------------------
   0 C :   -0.154650    0.909671
   1 H :    0.049719    0.030835
   2 H :    0.048509    0.030980
   3 H :    0.056422    0.028514

  Mayer bond orders larger than 0.100000
B(  0-C ,  1-H ) :   0.9764 B(  0-C ,  2-H ) :   0.9777 B(  0-C ,  3-H ) :   0.9763

FINAL SINGLE POINT ENERGY       -39.827932007427

DIPOLE MOMENT
-------------
                                X             Y             Z
Electronic contribution:      0.00143       0.06632      -0.00039
Nuclear contribution   :     -0.00445      -0.07687       0.00305
                        -----------------------------------------
Total Dipole Moment    :     -0.00303      -0.01055       0.00266
                        -----------------------------------------
Magnitude (a.u.)       :      0.01129
Magnitude (Debye)      :      0.02870

Rotational constants in cm-1:    10.141840     8.881739     4.735148
Rotational constants in MHz : 304044.722483 266267.823478 141956.176932

                             ****ORCA TERMINATED NORMALLY****
TOTAL RUN TIME: 0 days 0 hours 0 minutes 18 seconds 899 msec
