                         Program Version 5.0.3 -  RELEASE  -
|  1> !B3LYP EPR-III Autoaux
|  2> !PAL4
|  3>
|  4> * xyz 0 2
|  5>  C     -3.6430273859    -19.0531284805    -11.3274833824
|  6>  H     -4.0484556532    -18.3804435260    -10.5630320484
|  7>  H     -4.3256036463    -19.4664562624    -12.0735917886
|  8>  H     -2.5966313596    -19.4456109565    -11.3819566066
|  9> *
| 10>
| 11> %EPRNMR
| 12>         GTENSOR   TRUE
| 13>         NUCLEI    = ALL H {AISO, ADIP, AORB}
| 14>         NUCLEI    = ALL C {AISO, ADIP, AORB}
| 15> END
| 16>
| 17>
| 18>                          ****END OF INPUT****

CARTESIAN COORDINATES (ANGSTROEM)
---------------------------------
  C     -3.643027  -19.053128  -11.327483
  H     -4.048456  -18.380444  -10.563032
  H     -4.325604  -19.466456  -12.073592
  H     -2.596631  -19.445611  -11.381957

 Total Charge           Charge          ....    0
 Multiplicity           Mult            ....    2
 Number of Electrons    NEL             ....    9
 Basis Dimension        Dim             ....   73

ORBITAL ENERGIES
----------------
                 SPIN UP ORBITALS
  NO   OCC          E(Eh)            E(eV)
   0   1.0000     -10.190889      -277.3082
   1   1.0000      -0.681744       -18.5512
   2   1.0000      -0.426683       -11.6106
   3   1.0000      -0.408905       -11.1269
   4   1.0000      -0.234978        -6.3941
   5   0.0000       0.000170         0.0046
   6   0.0000       0.035568         0.9679
   7   0.0000       0.037810         1.0289
   8   0.0000       0.047378         1.2892
   9   0.0000       0.083272         2.2659

                 SPIN DOWN ORBITALS
  NO   OCC          E(Eh)            E(eV)
   0   1.0000     -10.176324      -276.9119
   1   1.0000      -0.642095       -17.4723
   2   1.0000      -0.417617       -11.3639
   3   1.0000      -0.399458       -10.8698
   4   0.0000      -0.077197        -2.1006
   5   0.0000       0.003527         0.0960
   6   0.0000       0.035256         0.9594
   7   0.0000       0.037444         1.0189
   8   0.0000       0.060692         1.6515

MULLIKEN ATOMIC CHARGES AND SPIN POPULATIONS
--------------------------------------------
   0 C :   -0.427500    1.107144
   1 H :    0.147014   -0.034808
   2 H :    0.137698   -0.035467
   3 H :    0.142788   -0.036870
Sum of atomic charges         :   -0.0000000

LOEWDIN ATOMIC CHARGES AND SPIN POPULATIONS
-------------------------------------------
   0 C :   -0.169790    0.917294
   1 H :    0.054668    0.028456
   2 H :    0.050632    0.029410
   3 H :    0.064490    0.024840

  Mayer bond orders larger than 0.100000
B(  0-C ,  1-H ) :   0.9735 B(  0-C ,  2-H ) :   0.9754 B(  0-C ,  3-H ) :   0.9740

FINAL SINGLE POINT ENERGY       -39.826589186224

DIPOLE MOMENT
-------------
                                X             Y             Z
Electronic contribution:      0.01821       0.07598       0.03356
Nuclear contribution   :     -0.03118      -0.09977      -0.02708
                        -----------------------------------------
Total Dipole Moment    :     -0.01298      -0.02379       0.00648
                        -----------------------------------------
Magnitude (a.u.)       :      0.02786
Magnitude (Debye)      :      0.07082

Rotational constants in cm-1:     9.917992     8.527283     4.590586
Rotational constants in MHz : 297333.918407 255641.498254 137622.299352

                             ****ORCA TERMINATED NORMALLY****
TOTAL RUN TIME: 0 days 0 hours 0 minutes 19 seconds 717 msec
