                         Program Version 5.0.3 -  RELEASE  -
|  1> !B3LYP EPR-III Autoaux
|  2> !PAL4
|  3>
|  4> * xyz 0 2
|  5>  C    -84.0603648769   -111.3890355431    -31.3595968536
|  6>  H    -84.3446147990   -112.4469395482    -31.4536849745
|  7>  H    -83.0289957852   -111.1778288877    -31.2881614386
|  8>  H    -85.0291198090   -110.7352372582    -31.3406259133
|  9> *
| 10>
| 11> %EPRNMR
| 12>         GTENSOR   TRUE
| 13>         NUCLEI    = ALL H {AISO, ADIP, AORB}
| 14>         NUCLEI    = ALL C {AISO, ADIP, AORB}
| 15> END
| 16>
| 17>
| 18>                          ****END OF INPUT****

CARTESIAN COORDINATES (ANGSTROEM)
---------------------------------
  C    -84.060365  -111.389036  -31.359597
  H    -84.344615  -112.446940  -31.453685
  H    -83.028996  -111.177829  -31.288161
  H    -85.029120  -110.735237  -31.340626

 Total Charge           Charge          ....    0
 Multiplicity           Mult            ....    2
 Number of Electrons    NEL             ....    9
 Basis Dimension        Dim             ....   73

ORBITAL ENERGIES
----------------
                 SPIN UP ORBITALS
  NO   OCC          E(Eh)            E(eV)
   0   1.0000     -10.192412      -277.3496
   1   1.0000      -0.682226       -18.5643
   2   1.0000      -0.438149       -11.9226
   3   1.0000      -0.394004       -10.7214
   4   1.0000      -0.235180        -6.3996
   5   0.0000      -0.000457        -0.0124
   6   0.0000       0.033805         0.9199
   7   0.0000       0.039026         1.0619
   8   0.0000       0.047306         1.2873
   9   0.0000       0.073860         2.0098

                 SPIN DOWN ORBITALS
  NO   OCC          E(Eh)            E(eV)
   0   1.0000     -10.177792      -276.9518
   1   1.0000      -0.642558       -17.4849
   2   1.0000      -0.429106       -11.6766
   3   1.0000      -0.384534       -10.4637
   4   0.0000      -0.077271        -2.1027
   5   0.0000       0.003034         0.0826
   6   0.0000       0.033577         0.9137
   7   0.0000       0.038680         1.0525
   8   0.0000       0.060623         1.6496

MULLIKEN ATOMIC CHARGES AND SPIN POPULATIONS
--------------------------------------------
   0 C :   -0.432893    1.110541
   1 H :    0.132278   -0.036723
   2 H :    0.155319   -0.032092
   3 H :    0.145296   -0.041725
Sum of atomic charges         :    0.0000000

LOEWDIN ATOMIC CHARGES AND SPIN POPULATIONS
-------------------------------------------
   0 C :   -0.173005    0.919601
   1 H :    0.052139    0.028478
   2 H :    0.034819    0.035216
   3 H :    0.086046    0.016705

  Mayer bond orders larger than 0.100000
B(  0-C ,  1-H ) :   0.9762 B(  0-C ,  2-H ) :   0.9734 B(  0-C ,  3-H ) :   0.9725

FINAL SINGLE POINT ENERGY       -39.819399749141

DIPOLE MOMENT
-------------
                                X             Y             Z
Electronic contribution:      0.15977       0.11658       0.00640
Nuclear contribution   :     -0.16611      -0.14457      -0.00276
                        -----------------------------------------
Total Dipole Moment    :     -0.00634      -0.02799       0.00364
                        -----------------------------------------
Magnitude (a.u.)       :      0.02893
Magnitude (Debye)      :      0.07354

Rotational constants in cm-1:    10.618446     7.933878     4.541289
Rotational constants in MHz : 318333.002043 237851.677230 136144.409185

                             ****ORCA TERMINATED NORMALLY****
TOTAL RUN TIME: 0 days 0 hours 0 minutes 19 seconds 894 msec
