                         Program Version 5.0.3 -  RELEASE  -
|  1> !B3LYP EPR-III Autoaux
|  2> !PAL4
|  3>
|  4> * xyz 0 2
|  5>  C    -93.9740395689   -123.8490851595    -33.4703120400
|  6>  H    -92.9689934231   -123.6009084189    -33.4135381601
|  7>  H    -94.7315420727   -123.0909568772    -33.4635791740
|  8>  H    -94.5069921884   -124.8482352847    -33.5723982255
|  9> *
| 10>
| 11> %EPRNMR
| 12>         GTENSOR   TRUE
| 13>         NUCLEI    = ALL H {AISO, ADIP, AORB}
| 14>         NUCLEI    = ALL C {AISO, ADIP, AORB}
| 15> END
| 16>
| 17>
| 18>                          ****END OF INPUT****

CARTESIAN COORDINATES (ANGSTROEM)
---------------------------------
  C    -93.974040  -123.849085  -33.470312
  H    -92.968993  -123.600908  -33.413538
  H    -94.731542  -123.090957  -33.463579
  H    -94.506992  -124.848235  -33.572398

 Total Charge           Charge          ....    0
 Multiplicity           Mult            ....    2
 Number of Electrons    NEL             ....    9
 Basis Dimension        Dim             ....   73

ORBITAL ENERGIES
----------------
                 SPIN UP ORBITALS
  NO   OCC          E(Eh)            E(eV)
   0   1.0000     -10.184803      -277.1426
   1   1.0000      -0.688818       -18.7437
   2   1.0000      -0.446145       -12.1402
   3   1.0000      -0.397541       -10.8177
   4   1.0000      -0.235111        -6.3977
   5   0.0000       0.000681         0.0185
   6   0.0000       0.033993         0.9250
   7   0.0000       0.039126         1.0647
   8   0.0000       0.047439         1.2909
   9   0.0000       0.080112         2.1800

                 SPIN DOWN ORBITALS
  NO   OCC          E(Eh)            E(eV)
   0   1.0000     -10.170341      -276.7491
   1   1.0000      -0.649414       -17.6715
   2   1.0000      -0.436804       -11.8860
   3   1.0000      -0.387886       -10.5549
   4   0.0000      -0.077562        -2.1106
   5   0.0000       0.003856         0.1049
   6   0.0000       0.033684         0.9166
   7   0.0000       0.038720         1.0536
   8   0.0000       0.060680         1.6512

MULLIKEN ATOMIC CHARGES AND SPIN POPULATIONS
--------------------------------------------
   0 C :   -0.431883    1.105252
   1 H :    0.155629   -0.030297
   2 H :    0.135370   -0.035208
   3 H :    0.140884   -0.039748
Sum of atomic charges         :    0.0000000

LOEWDIN ATOMIC CHARGES AND SPIN POPULATIONS
-------------------------------------------
   0 C :   -0.150280    0.908070
   1 H :    0.029435    0.037907
   2 H :    0.044303    0.032536
   3 H :    0.076542    0.021486

  Mayer bond orders larger than 0.100000
B(  0-C ,  1-H ) :   0.9771 B(  0-C ,  2-H ) :   0.9790 B(  0-C ,  3-H ) :   0.9777

FINAL SINGLE POINT ENERGY       -39.821395775473

DIPOLE MOMENT
-------------
                                X             Y             Z
Electronic contribution:      0.19350       0.01260       0.02191
Nuclear contribution   :     -0.21391       0.00536      -0.02891
                        -----------------------------------------
Total Dipole Moment    :     -0.02041       0.01796      -0.00701
                        -----------------------------------------
Magnitude (a.u.)       :      0.02808
Magnitude (Debye)      :      0.07137

Rotational constants in cm-1:    11.050350     8.372443     4.763850
Rotational constants in MHz : 331281.149650 250999.530871 142816.626612

                             ****ORCA TERMINATED NORMALLY****
TOTAL RUN TIME: 0 days 0 hours 0 minutes 21 seconds 405 msec
