                         Program Version 5.0.3 -  RELEASE  -
|  1> !B3LYP EPR-III Autoaux
|  2> !PAL4
|  3>
|  4> * xyz 0 2
|  5>  C    -74.9366837451   -100.1755254109    -29.1472947836
|  6>  H    -75.9862657249   -100.0340441179    -29.1648815770
|  7>  H    -74.5365590406   -101.2259546585    -29.2479677187
|  8>  H    -74.1960286801    -99.4517282260    -29.0772659549
|  9> *
| 10>
| 11> %EPRNMR
| 12>         GTENSOR   TRUE
| 13>         NUCLEI    = ALL H {AISO, ADIP, AORB}
| 14>         NUCLEI    = ALL C {AISO, ADIP, AORB}
| 15> END
| 16>
| 17>
| 18>                          ****END OF INPUT****

CARTESIAN COORDINATES (ANGSTROEM)
---------------------------------
  C    -74.936684  -100.175525  -29.147295
  H    -75.986266  -100.034044  -29.164882
  H    -74.536559  -101.225955  -29.247968
  H    -74.196029  -99.451728  -29.077266

 Total Charge           Charge          ....    0
 Multiplicity           Mult            ....    2
 Number of Electrons    NEL             ....    9
 Basis Dimension        Dim             ....   73

ORBITAL ENERGIES
----------------
                 SPIN UP ORBITALS
  NO   OCC          E(Eh)            E(eV)
   0   1.0000     -10.182737      -277.0864
   1   1.0000      -0.689727       -18.7684
   2   1.0000      -0.441938       -12.0257
   3   1.0000      -0.406022       -11.0484
   4   1.0000      -0.234960        -6.3936
   5   0.0000       0.001090         0.0297
   6   0.0000       0.035210         0.9581
   7   0.0000       0.038208         1.0397
   8   0.0000       0.047493         1.2924
   9   0.0000       0.087273         2.3748

                 SPIN DOWN ORBITALS
  NO   OCC          E(Eh)            E(eV)
   0   1.0000     -10.168327      -276.6942
   1   1.0000      -0.650303       -17.6956
   2   1.0000      -0.432303       -11.7636
   3   1.0000      -0.396627       -10.7928
   4   0.0000      -0.077522        -2.1095
   5   0.0000       0.004178         0.1137
   6   0.0000       0.034832         0.9478
   7   0.0000       0.037819         1.0291
   8   0.0000       0.060723         1.6524

MULLIKEN ATOMIC CHARGES AND SPIN POPULATIONS
--------------------------------------------
   0 C :   -0.427861    1.102527
   1 H :    0.148950   -0.032543
   2 H :    0.130945   -0.038032
   3 H :    0.147965   -0.031952
Sum of atomic charges         :    0.0000000

LOEWDIN ATOMIC CHARGES AND SPIN POPULATIONS
-------------------------------------------
   0 C :   -0.142801    0.904829
   1 H :    0.041771    0.034027
   2 H :    0.071309    0.023305
   3 H :    0.029721    0.037838

  Mayer bond orders larger than 0.100000
B(  0-C ,  1-H ) :   0.9777 B(  0-C ,  2-H ) :   0.9797 B(  0-C ,  3-H ) :   0.9782

FINAL SINGLE POINT ENERGY       -39.824881445373

DIPOLE MOMENT
-------------
                                X             Y             Z
Electronic contribution:     -0.06350       0.14140       0.02713
Nuclear contribution   :      0.06835      -0.13877      -0.03615
                        -----------------------------------------
Total Dipole Moment    :      0.00485       0.00263      -0.00902
                        -----------------------------------------
Magnitude (a.u.)       :      0.01058
Magnitude (Debye)      :      0.02688

Rotational constants in cm-1:    10.109047     9.209849     4.820044
Rotational constants in MHz : 303061.605001 276104.328924 144501.291097

                             ****ORCA TERMINATED NORMALLY****
TOTAL RUN TIME: 0 days 0 hours 0 minutes 24 seconds 931 msec
