                         Program Version 5.0.3 -  RELEASE  -
|  1> !B3LYP EPR-III Autoaux
|  2> !PAL4
|  3>
|  4> * xyz 0 2
|  5>  C    -54.2576288889    -75.9527371996    -24.2354275544
|  6>  H    -54.9371386801    -76.7693829831    -24.2599760117
|  7>  H    -53.2907367460    -76.2055327117    -24.3209351757
|  8>  H    -54.7733751472    -74.9794254054    -24.1710839350
|  9> *
| 10>
| 11> %EPRNMR
| 12>         GTENSOR   TRUE
| 13>         NUCLEI    = ALL H {AISO, ADIP, AORB}
| 14>         NUCLEI    = ALL C {AISO, ADIP, AORB}
| 15> END
| 16>
| 17>
| 18>                          ****END OF INPUT****

CARTESIAN COORDINATES (ANGSTROEM)
---------------------------------
  C    -54.257629  -75.952737  -24.235428
  H    -54.937139  -76.769383  -24.259976
  H    -53.290737  -76.205533  -24.320935
  H    -54.773375  -74.979425  -24.171084

 Total Charge           Charge          ....    0
 Multiplicity           Mult            ....    2
 Number of Electrons    NEL             ....    9
 Basis Dimension        Dim             ....   73

ORBITAL ENERGIES
----------------
                 SPIN UP ORBITALS
  NO   OCC          E(Eh)            E(eV)
   0   1.0000     -10.176861      -276.9265
   1   1.0000      -0.695844       -18.9349
   2   1.0000      -0.447554       -12.1786
   3   1.0000      -0.407287       -11.0829
   4   1.0000      -0.234987        -6.3943
   5   0.0000       0.001511         0.0411
   6   0.0000       0.034593         0.9413
   7   0.0000       0.038774         1.0551
   8   0.0000       0.047578         1.2947
   9   0.0000       0.084853         2.3090

                 SPIN DOWN ORBITALS
  NO   OCC          E(Eh)            E(eV)
   0   1.0000     -10.162547      -276.5370
   1   1.0000      -0.656741       -17.8708
   2   1.0000      -0.437905       -11.9160
   3   1.0000      -0.397375       -10.8131
   4   0.0000      -0.077744        -2.1155
   5   0.0000       0.004454         0.1212
   6   0.0000       0.034237         0.9316
   7   0.0000       0.038317         1.0427
   8   0.0000       0.060750         1.6531

MULLIKEN ATOMIC CHARGES AND SPIN POPULATIONS
--------------------------------------------
   0 C :   -0.431553    1.100015
   1 H :    0.132317   -0.034204
   2 H :    0.153696   -0.029394
   3 H :    0.145539   -0.036417
Sum of atomic charges         :    0.0000000

LOEWDIN ATOMIC CHARGES AND SPIN POPULATIONS
-------------------------------------------
   0 C :   -0.126756    0.896388
   1 H :    0.044900    0.033766
   2 H :    0.014445    0.043579
   3 H :    0.067411    0.026268

  Mayer bond orders larger than 0.100000
B(  0-C ,  1-H ) :   0.9823 B(  0-C ,  2-H ) :   0.9814 B(  0-C ,  3-H ) :   0.9800

FINAL SINGLE POINT ENERGY       -39.820723807353

DIPOLE MOMENT
-------------
                                X             Y             Z
Electronic contribution:      0.15556       0.05456       0.01864
Nuclear contribution   :     -0.17115      -0.07205      -0.03426
                        -----------------------------------------
Total Dipole Moment    :     -0.01560      -0.01749      -0.01562
                        -----------------------------------------
Magnitude (a.u.)       :      0.02816
Magnitude (Debye)      :      0.07157

Rotational constants in cm-1:    11.331428     8.926927     4.995450
Rotational constants in MHz : 339707.652453 267622.553320 149759.813568

                             ****ORCA TERMINATED NORMALLY****
TOTAL RUN TIME: 0 days 0 hours 0 minutes 20 seconds 617 msec
