                         Program Version 5.0.3 -  RELEASE  -
|  1> !B3LYP EPR-III Autoaux
|  2> !PAL4
|  3>
|  4> * xyz 0 2
|  5>  C    -90.5501630839   -119.4327808956    -32.7568969748
|  6>  H    -91.5313085334   -119.9086139719    -32.8453624855
|  7>  H    -89.5917617249   -119.9843117320    -32.7644686060
|  8>  H    -90.3538722803   -118.3033480767    -32.6596511058
|  9> *
| 10>
| 11> %EPRNMR
| 12>         GTENSOR   TRUE
| 13>         NUCLEI    = ALL H {AISO, ADIP, AORB}
| 14>         NUCLEI    = ALL C {AISO, ADIP, AORB}
| 15> END
| 16>
| 17>
| 18>                          ****END OF INPUT****

CARTESIAN COORDINATES (ANGSTROEM)
---------------------------------
  C    -90.550163  -119.432781  -32.756897
  H    -91.531309  -119.908614  -32.845362
  H    -89.591762  -119.984312  -32.764469
  H    -90.353872  -118.303348  -32.659651

 Total Charge           Charge          ....    0
 Multiplicity           Mult            ....    2
 Number of Electrons    NEL             ....    9
 Basis Dimension        Dim             ....   73

ORBITAL ENERGIES
----------------
                 SPIN UP ORBITALS
  NO   OCC          E(Eh)            E(eV)
   0   1.0000     -10.195178      -277.4249
   1   1.0000      -0.678365       -18.4593
   2   1.0000      -0.431388       -11.7387
   3   1.0000      -0.398212       -10.8359
   4   1.0000      -0.235012        -6.3950
   5   0.0000      -0.000511        -0.0139
   6   0.0000       0.034763         0.9460
   7   0.0000       0.038352         1.0436
   8   0.0000       0.047288         1.2868
   9   0.0000       0.080611         2.1935

                 SPIN DOWN ORBITALS
  NO   OCC          E(Eh)            E(eV)
   0   1.0000     -10.180521      -277.0261
   1   1.0000      -0.638486       -17.3741
   2   1.0000      -0.422395       -11.4940
   3   1.0000      -0.389017       -10.5857
   4   0.0000      -0.077063        -2.0970
   5   0.0000       0.003037         0.0826
   6   0.0000       0.034488         0.9385
   7   0.0000       0.038028         1.0348
   8   0.0000       0.060643         1.6502

MULLIKEN ATOMIC CHARGES AND SPIN POPULATIONS
--------------------------------------------
   0 C :   -0.429356    1.110920
   1 H :    0.152130   -0.034201
   2 H :    0.139691   -0.036845
   3 H :    0.137536   -0.039873
Sum of atomic charges         :    0.0000000

LOEWDIN ATOMIC CHARGES AND SPIN POPULATIONS
-------------------------------------------
   0 C :   -0.181470    0.923667
   1 H :    0.052254    0.028859
   2 H :    0.054830    0.027309
   3 H :    0.074386    0.020165

  Mayer bond orders larger than 0.100000
B(  0-C ,  1-H ) :   0.9707 B(  0-C ,  2-H ) :   0.9733 B(  0-C ,  3-H ) :   0.9732

FINAL SINGLE POINT ENERGY       -39.823374821031

DIPOLE MOMENT
-------------
                                X             Y             Z
Electronic contribution:     -0.11845      -0.08045      -0.00487
Nuclear contribution   :      0.13007       0.07650       0.00091
                        -----------------------------------------
Total Dipole Moment    :      0.01162      -0.00395      -0.00397
                        -----------------------------------------
Magnitude (a.u.)       :      0.01290
Magnitude (Debye)      :      0.03279

Rotational constants in cm-1:     9.860279     8.179803     4.471027
Rotational constants in MHz : 295603.732645 245224.339050 134038.031404

                             ****ORCA TERMINATED NORMALLY****
TOTAL RUN TIME: 0 days 0 hours 0 minutes 31 seconds 153 msec
