                         Program Version 5.0.3 -  RELEASE  -
|  1> !B3LYP EPR-III Autoaux
|  2> !PAL4
|  3>
|  4> * xyz 0 2
|  5>  C    -28.4703074676    -47.0589888527    -17.7288301192
|  6>  H    -27.6143091119    -47.8253420927    -17.5987452692
|  7>  H    -28.1976359279    -46.0617029513    -17.7320895981
|  8>  H    -29.4581480237    -47.5050758940    -17.9043189592
|  9> *
| 10>
| 11> %EPRNMR
| 12>         GTENSOR   TRUE
| 13>         NUCLEI    = ALL H {AISO, ADIP, AORB}
| 14>         NUCLEI    = ALL C {AISO, ADIP, AORB}
| 15> END
| 16>
| 17>
| 18>                          ****END OF INPUT****

CARTESIAN COORDINATES (ANGSTROEM)
---------------------------------
  C    -28.470307  -47.058989  -17.728830
  H    -27.614309  -47.825342  -17.598745
  H    -28.197636  -46.061703  -17.732090
  H    -29.458148  -47.505076  -17.904319

 Total Charge           Charge          ....    0
 Multiplicity           Mult            ....    2
 Number of Electrons    NEL             ....    9
 Basis Dimension        Dim             ....   73

ORBITAL ENERGIES
----------------
                 SPIN UP ORBITALS
  NO   OCC          E(Eh)            E(eV)
   0   1.0000     -10.189057      -277.2583
   1   1.0000      -0.684754       -18.6331
   2   1.0000      -0.439795       -11.9674
   3   1.0000      -0.399182       -10.8623
   4   1.0000      -0.235322        -6.4034
   5   0.0000       0.000319         0.0087
   6   0.0000       0.034913         0.9500
   7   0.0000       0.038300         1.0422
   8   0.0000       0.047367         1.2889
   9   0.0000       0.083443         2.2706

                 SPIN DOWN ORBITALS
  NO   OCC          E(Eh)            E(eV)
   0   1.0000     -10.174512      -276.8626
   1   1.0000      -0.645104       -17.5542
   2   1.0000      -0.430280       -11.7085
   3   1.0000      -0.390067       -10.6143
   4   0.0000      -0.077486        -2.1085
   5   0.0000       0.003611         0.0983
   6   0.0000       0.034580         0.9410
   7   0.0000       0.037977         1.0334
   8   0.0000       0.060640         1.6501

MULLIKEN ATOMIC CHARGES AND SPIN POPULATIONS
--------------------------------------------
   0 C :   -0.427902    1.106354
   1 H :    0.129014   -0.039796
   2 H :    0.152160   -0.031009
   3 H :    0.146729   -0.035548
Sum of atomic charges         :   -0.0000000

LOEWDIN ATOMIC CHARGES AND SPIN POPULATIONS
-------------------------------------------
   0 C :   -0.159369    0.913815
   1 H :    0.078352    0.019360
   2 H :    0.023897    0.038908
   3 H :    0.057121    0.027917

  Mayer bond orders larger than 0.100000
B(  0-C ,  1-H ) :   0.9775 B(  0-C ,  2-H ) :   0.9752 B(  0-C ,  3-H ) :   0.9747

FINAL SINGLE POINT ENERGY       -39.822624164944

DIPOLE MOMENT
-------------
                                X             Y             Z
Electronic contribution:     -0.10312       0.16232       0.01553
Nuclear contribution   :      0.10555      -0.16125      -0.03647
                        -----------------------------------------
Total Dipole Moment    :      0.00243       0.00107      -0.02094
                        -----------------------------------------
Magnitude (a.u.)       :      0.02111
Magnitude (Debye)      :      0.05365

Rotational constants in cm-1:     9.583310     8.975352     4.638522
Rotational constants in MHz : 287300.404287 269074.297458 139059.397684

                             ****ORCA TERMINATED NORMALLY****
TOTAL RUN TIME: 0 days 0 hours 0 minutes 22 seconds 164 msec
