                         Program Version 5.0.3 -  RELEASE  -
|  1> !B3LYP EPR-III Autoaux
|  2> !PAL4
|  3>
|  4> * xyz 0 2
|  5>  C    -56.4466884440    -78.3843536998    -24.8048586248
|  6>  H    -55.4531645869    -78.7811689704    -24.8497750167
|  7>  H    -56.7053584009    -77.4062425565    -24.6490381308
|  8>  H    -57.3418937676    -78.9841934649    -24.8496868036
|  9> *
| 10>
| 11> %EPRNMR
| 12>         GTENSOR   TRUE
| 13>         NUCLEI    = ALL H {AISO, ADIP, AORB}
| 14>         NUCLEI    = ALL C {AISO, ADIP, AORB}
| 15> END
| 16>
| 17>
| 18>                          ****END OF INPUT****

CARTESIAN COORDINATES (ANGSTROEM)
---------------------------------
  C    -56.446688  -78.384354  -24.804859
  H    -55.453165  -78.781169  -24.849775
  H    -56.705358  -77.406243  -24.649038
  H    -57.341894  -78.984193  -24.849687

 Total Charge           Charge          ....    0
 Multiplicity           Mult            ....    2
 Number of Electrons    NEL             ....    9
 Basis Dimension        Dim             ....   73

ORBITAL ENERGIES
----------------
                 SPIN UP ORBITALS
  NO   OCC          E(Eh)            E(eV)
   0   1.0000     -10.177553      -276.9453
   1   1.0000      -0.694915       -18.9096
   2   1.0000      -0.442921       -12.0525
   3   1.0000      -0.411611       -11.2005
   4   1.0000      -0.234928        -6.3927
   5   0.0000       0.001475         0.0401
   6   0.0000       0.035075         0.9544
   7   0.0000       0.038385         1.0445
   8   0.0000       0.047478         1.2919
   9   0.0000       0.090367         2.4590

                 SPIN DOWN ORBITALS
  NO   OCC          E(Eh)            E(eV)
   0   1.0000     -10.163283      -276.5570
   1   1.0000      -0.655887       -17.8476
   2   1.0000      -0.433368       -11.7925
   3   1.0000      -0.401679       -10.9303
   4   0.0000      -0.077808        -2.1173
   5   0.0000       0.004422         0.1203
   6   0.0000       0.034677         0.9436
   7   0.0000       0.037897         1.0312
   8   0.0000       0.060659         1.6506

MULLIKEN ATOMIC CHARGES AND SPIN POPULATIONS
--------------------------------------------
   0 C :   -0.430545    1.099305
   1 H :    0.150106   -0.032413
   2 H :    0.144284   -0.031855
   3 H :    0.136155   -0.035037
Sum of atomic charges         :   -0.0000000

LOEWDIN ATOMIC CHARGES AND SPIN POPULATIONS
-------------------------------------------
   0 C :   -0.129710    0.897122
   1 H :    0.051650    0.031666
   2 H :    0.024699    0.040225
   3 H :    0.053362    0.030987

  Mayer bond orders larger than 0.100000
B(  0-C ,  1-H ) :   0.9792 B(  0-C ,  2-H ) :   0.9810 B(  0-C ,  3-H ) :   0.9819

FINAL SINGLE POINT ENERGY       -39.823926306938

DIPOLE MOMENT
-------------
                                X             Y             Z
Electronic contribution:      0.10781       0.02080      -0.02923
Nuclear contribution   :     -0.12018      -0.01390       0.04952
                        -----------------------------------------
Total Dipole Moment    :     -0.01237       0.00691       0.02029
                        -----------------------------------------
Magnitude (a.u.)       :      0.02475
Magnitude (Debye)      :      0.06290

Rotational constants in cm-1:    11.398267     8.850721     4.985517
Rotational constants in MHz : 341711.450158 265337.932268 149462.025533

                             ****ORCA TERMINATED NORMALLY****
TOTAL RUN TIME: 0 days 0 hours 0 minutes 18 seconds 242 msec
