                         Program Version 5.0.3 -  RELEASE  -
|  1> !B3LYP EPR-III Autoaux
|  2> !PAL4
|  3>
|  4> * xyz 0 2
|  5>  C    -44.9877354357    -65.6289595750    -21.9069622523
|  6>  H    -45.6545958096    -64.7548872822    -21.9290798817
|  7>  H    -45.5984119661    -66.5428236341    -22.0111782812
|  8>  H    -43.8996923268    -65.4657242874    -21.8618057573
|  9> *
| 10>
| 11> %EPRNMR
| 12>         GTENSOR   TRUE
| 13>         NUCLEI    = ALL H {AISO, ADIP, AORB}
| 14>         NUCLEI    = ALL C {AISO, ADIP, AORB}
| 15> END
| 16>
| 17>
| 18>                          ****END OF INPUT****

CARTESIAN COORDINATES (ANGSTROEM)
---------------------------------
  C    -44.987735  -65.628960  -21.906962
  H    -45.654596  -64.754887  -21.929080
  H    -45.598412  -66.542824  -22.011178
  H    -43.899692  -65.465724  -21.861806

 Total Charge           Charge          ....    0
 Multiplicity           Mult            ....    2
 Number of Electrons    NEL             ....    9
 Basis Dimension        Dim             ....   73

ORBITAL ENERGIES
----------------
                 SPIN UP ORBITALS
  NO   OCC          E(Eh)            E(eV)
   0   1.0000     -10.190757      -277.3046
   1   1.0000      -0.682590       -18.5742
   2   1.0000      -0.435672       -11.8553
   3   1.0000      -0.399080       -10.8595
   4   1.0000      -0.235055        -6.3962
   5   0.0000       0.000059         0.0016
   6   0.0000       0.034378         0.9355
   7   0.0000       0.038792         1.0556
   8   0.0000       0.047364         1.2888
   9   0.0000       0.079295         2.1577

                 SPIN DOWN ORBITALS
  NO   OCC          E(Eh)            E(eV)
   0   1.0000     -10.176190      -276.9082
   1   1.0000      -0.643026       -17.4976
   2   1.0000      -0.426721       -11.6117
   3   1.0000      -0.389424       -10.5968
   4   0.0000      -0.077294        -2.1033
   5   0.0000       0.003423         0.0931
   6   0.0000       0.034093         0.9277
   7   0.0000       0.038402         1.0450
   8   0.0000       0.060671         1.6509

MULLIKEN ATOMIC CHARGES AND SPIN POPULATIONS
--------------------------------------------
   0 C :   -0.431168    1.108435
   1 H :    0.132676   -0.036574
   2 H :    0.145798   -0.036946
   3 H :    0.152695   -0.034915
Sum of atomic charges         :    0.0000000

LOEWDIN ATOMIC CHARGES AND SPIN POPULATIONS
-------------------------------------------
   0 C :   -0.171005    0.917273
   1 H :    0.053356    0.028362
   2 H :    0.058843    0.027044
   3 H :    0.058806    0.027321

  Mayer bond orders larger than 0.100000
B(  0-C ,  1-H ) :   0.9768 B(  0-C ,  2-H ) :   0.9747 B(  0-C ,  3-H ) :   0.9727

FINAL SINGLE POINT ENERGY       -39.824011984826

DIPOLE MOMENT
-------------
                                X             Y             Z
Electronic contribution:      0.12783      -0.07785       0.03940
Nuclear contribution   :     -0.14202       0.09252      -0.06084
                        -----------------------------------------
Total Dipole Moment    :     -0.01420       0.01467      -0.02144
                        -----------------------------------------
Magnitude (a.u.)       :      0.02961
Magnitude (Debye)      :      0.07525

Rotational constants in cm-1:    10.640841     8.092304     4.600459
Rotational constants in MHz : 319004.399738 242601.170874 137918.295916

                             ****ORCA TERMINATED NORMALLY****
TOTAL RUN TIME: 0 days 0 hours 0 minutes 19 seconds 499 msec
