                         Program Version 5.0.3 -  RELEASE  -
|  1> !B3LYP EPR-III Autoaux
|  2> !PAL4
|  3>
|  4> * xyz 0 2
|  5>  C      5.6872730405     -8.4055547019     -8.9340519217
|  6>  H      5.0840760879     -7.5623248907     -8.7822497295
|  7>  H      5.6217163993     -9.0582835070     -8.1016577423
|  8>  H      6.4747077954     -8.5691544676     -9.6358396327
|  9> *
| 10>
| 11> %EPRNMR
| 12>         GTENSOR   TRUE
| 13>         NUCLEI    = ALL H {AISO, ADIP, AORB}
| 14>         NUCLEI    = ALL C {AISO, ADIP, AORB}
| 15> END
| 16>
| 17>
| 18>                          ****END OF INPUT****

CARTESIAN COORDINATES (ANGSTROEM)
---------------------------------
  C      5.687273   -8.405555   -8.934052
  H      5.084076   -7.562325   -8.782250
  H      5.621716   -9.058284   -8.101658
  H      6.474708   -8.569154   -9.635840

 Total Charge           Charge          ....    0
 Multiplicity           Mult            ....    2
 Number of Electrons    NEL             ....    9
 Basis Dimension        Dim             ....   73

ORBITAL ENERGIES
----------------
                 SPIN UP ORBITALS
  NO   OCC          E(Eh)            E(eV)
   0   1.0000     -10.177727      -276.9500
   1   1.0000      -0.694640       -18.9021
   2   1.0000      -0.442400       -12.0383
   3   1.0000      -0.410272       -11.1641
   4   1.0000      -0.236468        -6.4346
   5   0.0000       0.001491         0.0406
   6   0.0000       0.035141         0.9562
   7   0.0000       0.038643         1.0515
   8   0.0000       0.047559         1.2942
   9   0.0000       0.087939         2.3929

                 SPIN DOWN ORBITALS
  NO   OCC          E(Eh)            E(eV)
   0   1.0000     -10.163372      -276.5594
   1   1.0000      -0.655828       -17.8460
   2   1.0000      -0.432824       -11.7777
   3   1.0000      -0.400158       -10.8888
   4   0.0000      -0.078529        -2.1369
   5   0.0000       0.004375         0.1191
   6   0.0000       0.034776         0.9463
   7   0.0000       0.038192         1.0393
   8   0.0000       0.060689         1.6514

MULLIKEN ATOMIC CHARGES AND SPIN POPULATIONS
--------------------------------------------
   0 C :   -0.426935    1.096833
   1 H :    0.145143   -0.031966
   2 H :    0.133262   -0.033214
   3 H :    0.148531   -0.031654
Sum of atomic charges         :    0.0000000

LOEWDIN ATOMIC CHARGES AND SPIN POPULATIONS
-------------------------------------------
   0 C :   -0.131421    0.897603
   1 H :    0.038792    0.035816
   2 H :    0.043061    0.034175
   3 H :    0.049567    0.032406

  Mayer bond orders larger than 0.100000
B(  0-C ,  1-H ) :   0.9811 B(  0-C ,  2-H ) :   0.9820 B(  0-C ,  3-H ) :   0.9797

FINAL SINGLE POINT ENERGY       -39.824622462833

DIPOLE MOMENT
-------------
                                X             Y             Z
Electronic contribution:     -0.04670       0.00508      -0.15699
Nuclear contribution   :      0.08895       0.02016       0.21166
                        -----------------------------------------
Total Dipole Moment    :      0.04225       0.02524       0.05467
                        -----------------------------------------
Magnitude (a.u.)       :      0.07356
Magnitude (Debye)      :      0.18698

Rotational constants in cm-1:    11.229397     8.891295     5.010034
Rotational constants in MHz : 336648.866952 266554.326933 150197.055333

                             ****ORCA TERMINATED NORMALLY****
TOTAL RUN TIME: 0 days 0 hours 0 minutes 33 seconds 998 msec
