                         Program Version 5.0.3 -  RELEASE  -
|  1> !B3LYP EPR-III Autoaux
|  2> !PAL4
|  3>
|  4> * xyz 0 2
|  5>  C      0.7112270115    -14.0996254436    -10.2108748083
|  6>  H      0.2463265960    -14.9683626265     -9.7494417275
|  7>  H      1.7174862028    -13.7127264657     -9.8951692728
|  8>  H      0.1515237454    -13.4999099113    -10.9051710769
|  9> *
| 10>
| 11> %EPRNMR
| 12>         GTENSOR   TRUE
| 13>         NUCLEI    = ALL H {AISO, ADIP, AORB}
| 14>         NUCLEI    = ALL C {AISO, ADIP, AORB}
| 15> END
| 16>
| 17>
| 18>                          ****END OF INPUT****

CARTESIAN COORDINATES (ANGSTROEM)
---------------------------------
  C      0.711227  -14.099625  -10.210875
  H      0.246327  -14.968363   -9.749442
  H      1.717486  -13.712726   -9.895169
  H      0.151524  -13.499910  -10.905171

 Total Charge           Charge          ....    0
 Multiplicity           Mult            ....    2
 Number of Electrons    NEL             ....    9
 Basis Dimension        Dim             ....   73

ORBITAL ENERGIES
----------------
                 SPIN UP ORBITALS
  NO   OCC          E(Eh)            E(eV)
   0   1.0000     -10.188745      -277.2499
   1   1.0000      -0.683675       -18.6037
   2   1.0000      -0.424248       -11.5444
   3   1.0000      -0.414532       -11.2800
   4   1.0000      -0.235195        -6.4000
   5   0.0000       0.000463         0.0126
   6   0.0000       0.036258         0.9866
   7   0.0000       0.037259         1.0139
   8   0.0000       0.047413         1.2902
   9   0.0000       0.086109         2.3431

                 SPIN DOWN ORBITALS
  NO   OCC          E(Eh)            E(eV)
   0   1.0000     -10.174219      -276.8546
   1   1.0000      -0.644136       -17.5278
   2   1.0000      -0.414889       -11.2897
   3   1.0000      -0.405212       -11.0264
   4   0.0000      -0.077398        -2.1061
   5   0.0000       0.003729         0.1015
   6   0.0000       0.035915         0.9773
   7   0.0000       0.036898         1.0040
   8   0.0000       0.060699         1.6517

MULLIKEN ATOMIC CHARGES AND SPIN POPULATIONS
--------------------------------------------
   0 C :   -0.425863    1.104821
   1 H :    0.144578   -0.034171
   2 H :    0.139828   -0.036808
   3 H :    0.141457   -0.033842
Sum of atomic charges         :   -0.0000000

LOEWDIN ATOMIC CHARGES AND SPIN POPULATIONS
-------------------------------------------
   0 C :   -0.162579    0.913908
   1 H :    0.051518    0.029784
   2 H :    0.067052    0.024168
   3 H :    0.044009    0.032139

  Mayer bond orders larger than 0.100000
B(  0-C ,  1-H ) :   0.9750 B(  0-C ,  2-H ) :   0.9752 B(  0-C ,  3-H ) :   0.9757

FINAL SINGLE POINT ENERGY       -39.827377581906

DIPOLE MOMENT
-------------
                                X             Y             Z
Electronic contribution:     -0.00642      -0.06472      -0.04033
Nuclear contribution   :     -0.01375       0.08835       0.06209
                        -----------------------------------------
Total Dipole Moment    :     -0.02017       0.02362       0.02176
                        -----------------------------------------
Magnitude (a.u.)       :      0.03793
Magnitude (Debye)      :      0.09640

Rotational constants in cm-1:     9.739110     8.863792     4.652592
Rotational constants in MHz : 291971.167171 265729.794998 139481.188519

                             ****ORCA TERMINATED NORMALLY****
TOTAL RUN TIME: 0 days 0 hours 0 minutes 20 seconds 517 msec
