                         Program Version 5.0.3 -  RELEASE  -
|  1> !B3LYP EPR-III Autoaux
|  2> !PAL4
|  3>
|  4> * xyz 0 2
|  5>  C    -65.9657224573    -89.3195880874    -27.0793788727
|  6>  H    -65.8665952790    -88.2765149166    -26.9892744492
|  7>  H    -66.9083055303    -89.7686548774    -27.1499802137
|  8>  H    -65.0028527197    -89.8471059336    -27.0969797745
|  9> *
| 10>
| 11> %EPRNMR
| 12>         GTENSOR   TRUE
| 13>         NUCLEI    = ALL H {AISO, ADIP, AORB}
| 14>         NUCLEI    = ALL C {AISO, ADIP, AORB}
| 15> END
| 16>
| 17>
| 18>                          ****END OF INPUT****

CARTESIAN COORDINATES (ANGSTROEM)
---------------------------------
  C    -65.965722  -89.319588  -27.079379
  H    -65.866595  -88.276515  -26.989274
  H    -66.908306  -89.768655  -27.149980
  H    -65.002853  -89.847106  -27.096980

 Total Charge           Charge          ....    0
 Multiplicity           Mult            ....    2
 Number of Electrons    NEL             ....    9
 Basis Dimension        Dim             ....   73

ORBITAL ENERGIES
----------------
                 SPIN UP ORBITALS
  NO   OCC          E(Eh)            E(eV)
   0   1.0000     -10.179611      -277.0013
   1   1.0000      -0.691955       -18.8291
   2   1.0000      -0.438032       -11.9195
   3   1.0000      -0.413878       -11.2622
   4   1.0000      -0.234681        -6.3860
   5   0.0000       0.001423         0.0387
   6   0.0000       0.035560         0.9676
   7   0.0000       0.037993         1.0339
   8   0.0000       0.047566         1.2943
   9   0.0000       0.088509         2.4084

                 SPIN DOWN ORBITALS
  NO   OCC          E(Eh)            E(eV)
   0   1.0000     -10.165265      -276.6109
   1   1.0000      -0.652673       -17.7601
   2   1.0000      -0.428470       -11.6592
   3   1.0000      -0.404188       -10.9985
   4   0.0000      -0.077462        -2.1078
   5   0.0000       0.004430         0.1206
   6   0.0000       0.035172         0.9571
   7   0.0000       0.037560         1.0221
   8   0.0000       0.060783         1.6540

MULLIKEN ATOMIC CHARGES AND SPIN POPULATIONS
--------------------------------------------
   0 C :   -0.428334    1.100628
   1 H :    0.139941   -0.033184
   2 H :    0.148856   -0.031510
   3 H :    0.139537   -0.035935
Sum of atomic charges         :    0.0000000

LOEWDIN ATOMIC CHARGES AND SPIN POPULATIONS
-------------------------------------------
   0 C :   -0.135940    0.900682
   1 H :    0.037839    0.035559
   2 H :    0.036718    0.036090
   3 H :    0.061382    0.027669

  Mayer bond orders larger than 0.100000
B(  0-C ,  1-H ) :   0.9801 B(  0-C ,  2-H ) :   0.9790 B(  0-C ,  3-H ) :   0.9797

FINAL SINGLE POINT ENERGY       -39.826407258434

DIPOLE MOMENT
-------------
                                X             Y             Z
Electronic contribution:     -0.08659      -0.03695      -0.00243
Nuclear contribution   :      0.08950       0.04983       0.00143
                        -----------------------------------------
Total Dipole Moment    :      0.00291       0.01289      -0.00100
                        -----------------------------------------
Magnitude (a.u.)       :      0.01325
Magnitude (Debye)      :      0.03368

Rotational constants in cm-1:    10.603939     9.146793     4.910850
Rotational constants in MHz : 317898.108680 274213.955547 147223.593350

                             ****ORCA TERMINATED NORMALLY****
TOTAL RUN TIME: 0 days 0 hours 0 minutes 18 seconds 308 msec
