                         Program Version 5.0.3 -  RELEASE  -
|  1> !B3LYP EPR-III Autoaux
|  2> !PAL4
|  3>
|  4> * xyz 0 2
|  5>  C    -81.8685065174   -108.7072237695    -30.8342345798
|  6>  H    -82.7824927349   -108.0949993669    -30.7919339426
|  7>  H    -81.9716552988   -109.7775011415    -30.9241911888
|  8>  H    -80.9625358705   -107.9725376081    -30.7248152943
|  9> *
| 10>
| 11> %EPRNMR
| 12>         GTENSOR   TRUE
| 13>         NUCLEI    = ALL H {AISO, ADIP, AORB}
| 14>         NUCLEI    = ALL C {AISO, ADIP, AORB}
| 15> END
| 16>
| 17>
| 18>                          ****END OF INPUT****

CARTESIAN COORDINATES (ANGSTROEM)
---------------------------------
  C    -81.868507  -108.707224  -30.834235
  H    -82.782493  -108.094999  -30.791934
  H    -81.971655  -109.777501  -30.924191
  H    -80.962536  -107.972538  -30.724815

 Total Charge           Charge          ....    0
 Multiplicity           Mult            ....    2
 Number of Electrons    NEL             ....    9
 Basis Dimension        Dim             ....   73

ORBITAL ENERGIES
----------------
                 SPIN UP ORBITALS
  NO   OCC          E(Eh)            E(eV)
   0   1.0000     -10.195207      -277.4257
   1   1.0000      -0.679581       -18.4923
   2   1.0000      -0.437001       -11.8914
   3   1.0000      -0.390879       -10.6364
   4   1.0000      -0.235234        -6.4011
   5   0.0000      -0.000945        -0.0257
   6   0.0000       0.033572         0.9135
   7   0.0000       0.039199         1.0666
   8   0.0000       0.047257         1.2859
   9   0.0000       0.071987         1.9589

                 SPIN DOWN ORBITALS
  NO   OCC          E(Eh)            E(eV)
   0   1.0000     -10.180529      -277.0263
   1   1.0000      -0.639818       -17.4103
   2   1.0000      -0.428160       -11.6508
   3   1.0000      -0.381394       -10.3783
   4   0.0000      -0.077204        -2.1008
   5   0.0000       0.002673         0.0727
   6   0.0000       0.033356         0.9077
   7   0.0000       0.038866         1.0576
   8   0.0000       0.060601         1.6490

MULLIKEN ATOMIC CHARGES AND SPIN POPULATIONS
--------------------------------------------
   0 C :   -0.433983    1.112627
   1 H :    0.133010   -0.036971
   2 H :    0.156249   -0.033370
   3 H :    0.144723   -0.042287
Sum of atomic charges         :    0.0000000

LOEWDIN ATOMIC CHARGES AND SPIN POPULATIONS
-------------------------------------------
   0 C :   -0.182575    0.923988
   1 H :    0.050966    0.028364
   2 H :    0.046084    0.031217
   3 H :    0.085526    0.016431

  Mayer bond orders larger than 0.100000
B(  0-C ,  1-H ) :   0.9748 B(  0-C ,  2-H ) :   0.9712 B(  0-C ,  3-H ) :   0.9718

FINAL SINGLE POINT ENERGY       -39.818609325939

DIPOLE MOMENT
-------------
                                X             Y             Z
Electronic contribution:      0.05667      -0.19187      -0.03471
Nuclear contribution   :     -0.08332       0.20733       0.04629
                        -----------------------------------------
Total Dipole Moment    :     -0.02665       0.01546       0.01158
                        -----------------------------------------
Magnitude (a.u.)       :      0.03291
Magnitude (Debye)      :      0.08365

Rotational constants in cm-1:    10.662013     7.691371     4.469102
Rotational constants in MHz : 319639.102782 230581.503725 133980.313074

                             ****ORCA TERMINATED NORMALLY****
TOTAL RUN TIME: 0 days 0 hours 0 minutes 24 seconds 817 msec
