                         Program Version 5.0.3 -  RELEASE  -
|  1> !B3LYP EPR-III Autoaux
|  2> !PAL4
|  3>
|  4> * xyz 0 2
|  5>  C     12.1125400081     -1.1464503769     -7.2971719703
|  6>  H     12.7849229071     -0.4748193542     -6.8662752336
|  7>  H     11.3922388448     -1.5829079932     -6.6154512932
|  8>  H     12.1268456701     -1.4792221800     -8.2996098065
|  9> *
| 10>
| 11> %EPRNMR
| 12>         GTENSOR   TRUE
| 13>         NUCLEI    = ALL H {AISO, ADIP, AORB}
| 14>         NUCLEI    = ALL C {AISO, ADIP, AORB}
| 15> END
| 16>
| 17>
| 18>                          ****END OF INPUT****

CARTESIAN COORDINATES (ANGSTROEM)
---------------------------------
  C     12.112540   -1.146450   -7.297172
  H     12.784923   -0.474819   -6.866275
  H     11.392239   -1.582908   -6.615451
  H     12.126846   -1.479222   -8.299610

 Total Charge           Charge          ....    0
 Multiplicity           Mult            ....    2
 Number of Electrons    NEL             ....    9
 Basis Dimension        Dim             ....   73

ORBITAL ENERGIES
----------------
                 SPIN UP ORBITALS
  NO   OCC          E(Eh)            E(eV)
   0   1.0000     -10.178350      -276.9670
   1   1.0000      -0.692909       -18.8550
   2   1.0000      -0.438300       -11.9268
   3   1.0000      -0.415608       -11.3093
   4   1.0000      -0.234825        -6.3899
   5   0.0000       0.001578         0.0430
   6   0.0000       0.035767         0.9733
   7   0.0000       0.037867         1.0304
   8   0.0000       0.047586         1.2949
   9   0.0000       0.091457         2.4887

                 SPIN DOWN ORBITALS
  NO   OCC          E(Eh)            E(eV)
   0   1.0000     -10.164027      -276.5772
   1   1.0000      -0.653683       -17.7876
   2   1.0000      -0.428649       -11.6641
   3   1.0000      -0.405925       -11.0458
   4   0.0000      -0.077582        -2.1111
   5   0.0000       0.004538         0.1235
   6   0.0000       0.035363         0.9623
   7   0.0000       0.037430         1.0185
   8   0.0000       0.060787         1.6541

MULLIKEN ATOMIC CHARGES AND SPIN POPULATIONS
--------------------------------------------
   0 C :   -0.427499    1.099288
   1 H :    0.145401   -0.032040
   2 H :    0.135708   -0.034905
   3 H :    0.146389   -0.032344
Sum of atomic charges         :   -0.0000000

LOEWDIN ATOMIC CHARGES AND SPIN POPULATIONS
-------------------------------------------
   0 C :   -0.132204    0.898770
   1 H :    0.035292    0.036665
   2 H :    0.054433    0.030201
   3 H :    0.042480    0.034364

  Mayer bond orders larger than 0.100000
B(  0-C ,  1-H ) :   0.9800 B(  0-C ,  2-H ) :   0.9809 B(  0-C ,  3-H ) :   0.9797

FINAL SINGLE POINT ENERGY       -39.826964150705

DIPOLE MOMENT
-------------
                                X             Y             Z
Electronic contribution:      0.03686       0.05669      -0.07167
Nuclear contribution   :     -0.02519      -0.07315       0.08258
                        -----------------------------------------
Total Dipole Moment    :      0.01167      -0.01646       0.01091
                        -----------------------------------------
Magnitude (a.u.)       :      0.02294
Magnitude (Debye)      :      0.05831

Rotational constants in cm-1:    10.364502     9.474164     4.954224
Rotational constants in MHz : 310719.949664 284028.286030 148523.908959

                             ****ORCA TERMINATED NORMALLY****
TOTAL RUN TIME: 0 days 0 hours 0 minutes 24 seconds 227 msec
