                         Program Version 5.0.3 -  RELEASE  -
|  1> !B3LYP EPR-III Autoaux
|  2> !PAL4
|  3>
|  4> * xyz 0 2
|  5>  C    -75.1598482367   -100.4724452081    -29.2089204294
|  6>  H    -76.2747285708   -100.5227419779    -29.2250354340
|  7>  H    -74.6658417999   -101.4764581814    -29.2786902467
|  8>  H    -74.6744162404    -99.4820600438    -29.1057304913
|  9> *
| 10>
| 11> %EPRNMR
| 12>         GTENSOR   TRUE
| 13>         NUCLEI    = ALL H {AISO, ADIP, AORB}
| 14>         NUCLEI    = ALL C {AISO, ADIP, AORB}
| 15> END
| 16>
| 17>
| 18>                          ****END OF INPUT****

CARTESIAN COORDINATES (ANGSTROEM)
---------------------------------
  C    -75.159848  -100.472445  -29.208920
  H    -76.274729  -100.522742  -29.225035
  H    -74.665842  -101.476458  -29.278690
  H    -74.674416  -99.482060  -29.105730

 Total Charge           Charge          ....    0
 Multiplicity           Mult            ....    2
 Number of Electrons    NEL             ....    9
 Basis Dimension        Dim             ....   73

ORBITAL ENERGIES
----------------
                 SPIN UP ORBITALS
  NO   OCC          E(Eh)            E(eV)
   0   1.0000     -10.194620      -277.4097
   1   1.0000      -0.678409       -18.4604
   2   1.0000      -0.426717       -11.6116
   3   1.0000      -0.403629       -10.9833
   4   1.0000      -0.234873        -6.3912
   5   0.0000      -0.000368        -0.0100
   6   0.0000       0.035211         0.9582
   7   0.0000       0.038007         1.0342
   8   0.0000       0.047313         1.2875
   9   0.0000       0.081081         2.2063

                 SPIN DOWN ORBITALS
  NO   OCC          E(Eh)            E(eV)
   0   1.0000     -10.179981      -277.0114
   1   1.0000      -0.638560       -17.3761
   2   1.0000      -0.417801       -11.3690
   3   1.0000      -0.394327       -10.7302
   4   0.0000      -0.076994        -2.0951
   5   0.0000       0.003150         0.0857
   6   0.0000       0.034928         0.9504
   7   0.0000       0.037665         1.0249
   8   0.0000       0.060672         1.6510

MULLIKEN ATOMIC CHARGES AND SPIN POPULATIONS
--------------------------------------------
   0 C :   -0.428605    1.110253
   1 H :    0.135730   -0.037241
   2 H :    0.144185   -0.037333
   3 H :    0.148691   -0.035679
Sum of atomic charges         :    0.0000000

LOEWDIN ATOMIC CHARGES AND SPIN POPULATIONS
-------------------------------------------
   0 C :   -0.180900    0.922969
   1 H :    0.058967    0.025778
   2 H :    0.063542    0.024603
   3 H :    0.058392    0.026650

  Mayer bond orders larger than 0.100000
B(  0-C ,  1-H ) :   0.9740 B(  0-C ,  2-H ) :   0.9721 B(  0-C ,  3-H ) :   0.9713

FINAL SINGLE POINT ENERGY       -39.825051288526

DIPOLE MOMENT
-------------
                                X             Y             Z
Electronic contribution:      0.09085       0.04520      -0.00643
Nuclear contribution   :     -0.10151      -0.04791       0.01297
                        -----------------------------------------
Total Dipole Moment    :     -0.01066      -0.00271       0.00654
                        -----------------------------------------
Magnitude (a.u.)       :      0.01279
Magnitude (Debye)      :      0.03252

Rotational constants in cm-1:     9.747321     8.308911     4.485817
Rotational constants in MHz : 292217.321872 249094.895487 134481.406948

                             ****ORCA TERMINATED NORMALLY****
TOTAL RUN TIME: 0 days 0 hours 0 minutes 23 seconds 118 msec
