                         Program Version 5.0.3 -  RELEASE  -
|  1> !B3LYP EPR-III Autoaux
|  2> !PAL4
|  3>
|  4> * xyz 0 2
|  5>  C    -75.7365641947   -101.1730487732    -29.3464348856
|  6>  H    -76.6775904117   -101.6602194872    -29.4027383306
|  7>  H    -74.8303144126   -101.6096717236    -29.3494439325
|  8>  H    -75.6416209445   -100.1052141877    -29.2506712420
|  9> *
| 10>
| 11> %EPRNMR
| 12>         GTENSOR   TRUE
| 13>         NUCLEI    = ALL H {AISO, ADIP, AORB}
| 14>         NUCLEI    = ALL C {AISO, ADIP, AORB}
| 15> END
| 16>
| 17>
| 18>                          ****END OF INPUT****

CARTESIAN COORDINATES (ANGSTROEM)
---------------------------------
  C    -75.736564  -101.173049  -29.346435
  H    -76.677590  -101.660219  -29.402738
  H    -74.830314  -101.609672  -29.349444
  H    -75.641621  -100.105214  -29.250671

 Total Charge           Charge          ....    0
 Multiplicity           Mult            ....    2
 Number of Electrons    NEL             ....    9
 Basis Dimension        Dim             ....   73

ORBITAL ENERGIES
----------------
                 SPIN UP ORBITALS
  NO   OCC          E(Eh)            E(eV)
   0   1.0000     -10.174121      -276.8519
   1   1.0000      -0.697541       -18.9810
   2   1.0000      -0.444705       -12.1010
   3   1.0000      -0.414409       -11.2766
   4   1.0000      -0.234731        -6.3874
   5   0.0000       0.001813         0.0493
   6   0.0000       0.035313         0.9609
   7   0.0000       0.038280         1.0417
   8   0.0000       0.047641         1.2964
   9   0.0000       0.092462         2.5160

                 SPIN DOWN ORBITALS
  NO   OCC          E(Eh)            E(eV)
   0   1.0000     -10.159866      -276.4640
   1   1.0000      -0.658501       -17.9187
   2   1.0000      -0.434952       -11.8357
   3   1.0000      -0.404462       -11.0060
   4   0.0000      -0.077678        -2.1137
   5   0.0000       0.004690         0.1276
   6   0.0000       0.034916         0.9501
   7   0.0000       0.037808         1.0288
   8   0.0000       0.060803         1.6545

MULLIKEN ATOMIC CHARGES AND SPIN POPULATIONS
--------------------------------------------
   0 C :   -0.430371    1.097954
   1 H :    0.148674   -0.032209
   2 H :    0.146645   -0.030762
   3 H :    0.135053   -0.034983
Sum of atomic charges         :   -0.0000000

LOEWDIN ATOMIC CHARGES AND SPIN POPULATIONS
-------------------------------------------
   0 C :   -0.119318    0.892626
   1 H :    0.048485    0.033084
   2 H :    0.016681    0.043143
   3 H :    0.054151    0.031147

  Mayer bond orders larger than 0.100000
B(  0-C ,  1-H ) :   0.9808 B(  0-C ,  2-H ) :   0.9819 B(  0-C ,  3-H ) :   0.9830

FINAL SINGLE POINT ENERGY       -39.822605445857

DIPOLE MOMENT
-------------
                                X             Y             Z
Electronic contribution:     -0.03165      -0.10484      -0.01989
Nuclear contribution   :      0.04509       0.10796       0.02732
                        -----------------------------------------
Total Dipole Moment    :      0.01344       0.00312       0.00743
                        -----------------------------------------
Magnitude (a.u.)       :      0.01567
Magnitude (Debye)      :      0.03984

Rotational constants in cm-1:    11.409761     9.143218     5.076199
Rotational constants in MHz : 342056.025978 274106.781391 152180.603636

                             ****ORCA TERMINATED NORMALLY****
TOTAL RUN TIME: 0 days 0 hours 0 minutes 21 seconds 538 msec
