                         Program Version 5.0.3 -  RELEASE  -
|  1> !B3LYP EPR-III Autoaux
|  2> !PAL4
|  3>
|  4> * xyz 0 2
|  5>  C    -37.6598036827    -57.4260312537    -20.0442247517
|  6>  H    -37.8437312877    -56.3103517024    -20.1352879536
|  7>  H    -38.5367689417    -58.0566098741    -20.0103931068
|  8>  H    -36.5867850200    -57.6786678548    -20.1135855657
|  9> *
| 10>
| 11> %EPRNMR
| 12>         GTENSOR   TRUE
| 13>         NUCLEI    = ALL H {AISO, ADIP, AORB}
| 14>         NUCLEI    = ALL C {AISO, ADIP, AORB}
| 15> END
| 16>
| 17>
| 18>                          ****END OF INPUT****

CARTESIAN COORDINATES (ANGSTROEM)
---------------------------------
  C    -37.659804  -57.426031  -20.044225
  H    -37.843731  -56.310352  -20.135288
  H    -38.536769  -58.056610  -20.010393
  H    -36.586785  -57.678668  -20.113586

 Total Charge           Charge          ....    0
 Multiplicity           Mult            ....    2
 Number of Electrons    NEL             ....    9
 Basis Dimension        Dim             ....   73

ORBITAL ENERGIES
----------------
                 SPIN UP ORBITALS
  NO   OCC          E(Eh)            E(eV)
   0   1.0000     -10.192325      -277.3473
   1   1.0000      -0.681126       -18.5344
   2   1.0000      -0.435527       -11.8513
   3   1.0000      -0.398086       -10.8325
   4   1.0000      -0.235372        -6.4048
   5   0.0000      -0.000026        -0.0007
   6   0.0000       0.034652         0.9429
   7   0.0000       0.038553         1.0491
   8   0.0000       0.047324         1.2878
   9   0.0000       0.081114         2.2072

                 SPIN DOWN ORBITALS
  NO   OCC          E(Eh)            E(eV)
   0   1.0000     -10.177723      -276.9499
   1   1.0000      -0.641436       -17.4543
   2   1.0000      -0.426411       -11.6032
   3   1.0000      -0.388757       -10.5786
   4   0.0000      -0.077410        -2.1064
   5   0.0000       0.003362         0.0915
   6   0.0000       0.034351         0.9347
   7   0.0000       0.038205         1.0396
   8   0.0000       0.060629         1.6498

MULLIKEN ATOMIC CHARGES AND SPIN POPULATIONS
--------------------------------------------
   0 C :   -0.429016    1.108255
   1 H :    0.130081   -0.038388
   2 H :    0.151393   -0.033743
   3 H :    0.147542   -0.036124
Sum of atomic charges         :   -0.0000000

LOEWDIN ATOMIC CHARGES AND SPIN POPULATIONS
-------------------------------------------
   0 C :   -0.173055    0.919089
   1 H :    0.067479    0.022926
   2 H :    0.047288    0.030944
   3 H :    0.058288    0.027041

  Mayer bond orders larger than 0.100000
B(  0-C ,  1-H ) :   0.9763 B(  0-C ,  2-H ) :   0.9729 B(  0-C ,  3-H ) :   0.9733

FINAL SINGLE POINT ENERGY       -39.824242045958

DIPOLE MOMENT
-------------
                                X             Y             Z
Electronic contribution:     -0.01025      -0.16629       0.06310
Nuclear contribution   :      0.00909       0.17423      -0.09488
                        -----------------------------------------
Total Dipole Moment    :     -0.00116       0.00794      -0.03178
                        -----------------------------------------
Magnitude (a.u.)       :      0.03278
Magnitude (Debye)      :      0.08332

Rotational constants in cm-1:     9.908173     8.423024     4.561100
Rotational constants in MHz : 297039.540904 252515.894534 136738.327277

                             ****ORCA TERMINATED NORMALLY****
TOTAL RUN TIME: 0 days 0 hours 0 minutes 31 seconds 463 msec
