                         Program Version 5.0.3 -  RELEASE  -
|  1> !B3LYP EPR-III Autoaux
|  2> !PAL4
|  3>
|  4> * xyz 0 2
|  5>  C      2.2087968987    -12.3416952268     -9.8094162517
|  6>  H      3.0427448219    -11.9965827396     -9.1302851960
|  7>  H      1.7751670627    -11.8164423140    -10.5459744818
|  8>  H      2.0583868945    -13.3995210271     -9.8119317605
|  9> *
| 10>
| 11> %EPRNMR
| 12>         GTENSOR   TRUE
| 13>         NUCLEI    = ALL H {AISO, ADIP, AORB}
| 14>         NUCLEI    = ALL C {AISO, ADIP, AORB}
| 15> END
| 16>
| 17>
| 18>                          ****END OF INPUT****

CARTESIAN COORDINATES (ANGSTROEM)
---------------------------------
  C      2.208797  -12.341695   -9.809416
  H      3.042745  -11.996583   -9.130285
  H      1.775167  -11.816442  -10.545974
  H      2.058387  -13.399521   -9.811932

 Total Charge           Charge          ....    0
 Multiplicity           Mult            ....    2
 Number of Electrons    NEL             ....    9
 Basis Dimension        Dim             ....   73

ORBITAL ENERGIES
----------------
                 SPIN UP ORBITALS
  NO   OCC          E(Eh)            E(eV)
   0   1.0000     -10.180217      -277.0178
   1   1.0000      -0.693316       -18.8661
   2   1.0000      -0.440221       -11.9790
   3   1.0000      -0.409412       -11.1407
   4   1.0000      -0.236749        -6.4423
   5   0.0000       0.001158         0.0315
   6   0.0000       0.035454         0.9648
   7   0.0000       0.038255         1.0410
   8   0.0000       0.047493         1.2924
   9   0.0000       0.084912         2.3106

                 SPIN DOWN ORBITALS
  NO   OCC          E(Eh)            E(eV)
   0   1.0000     -10.165797      -276.6254
   1   1.0000      -0.654374       -17.8064
   2   1.0000      -0.430314       -11.7094
   3   1.0000      -0.399789       -10.8788
   4   0.0000      -0.078547        -2.1374
   5   0.0000       0.004128         0.1123
   6   0.0000       0.035114         0.9555
   7   0.0000       0.037858         1.0302
   8   0.0000       0.060631         1.6499

MULLIKEN ATOMIC CHARGES AND SPIN POPULATIONS
--------------------------------------------
   0 C :   -0.426506    1.097776
   1 H :    0.139501   -0.036408
   2 H :    0.151484   -0.028130
   3 H :    0.135520   -0.033237
Sum of atomic charges         :    0.0000000

LOEWDIN ATOMIC CHARGES AND SPIN POPULATIONS
-------------------------------------------
   0 C :   -0.133781    0.900506
   1 H :    0.075567    0.022829
   2 H :    0.011848    0.043887
   3 H :    0.046366    0.032778

  Mayer bond orders larger than 0.100000
B(  0-C ,  1-H ) :   0.9788 B(  0-C ,  2-H ) :   0.9794 B(  0-C ,  3-H ) :   0.9806

FINAL SINGLE POINT ENERGY       -39.821415795865

DIPOLE MOMENT
-------------
                                X             Y             Z
Electronic contribution:     -0.14143       0.11342      -0.00623
Nuclear contribution   :      0.18730      -0.14050      -0.04493
                        -----------------------------------------
Total Dipole Moment    :      0.04587      -0.02708      -0.05115
                        -----------------------------------------
Magnitude (a.u.)       :      0.07385
Magnitude (Debye)      :      0.18771

Rotational constants in cm-1:    10.655591     8.968691     4.918829
Rotational constants in MHz : 319446.577961 268874.580801 147462.794560

                             ****ORCA TERMINATED NORMALLY****
TOTAL RUN TIME: 0 days 0 hours 0 minutes 24 seconds 595 msec
