                         Program Version 5.0.3 -  RELEASE  -
|  1> !B3LYP EPR-III Autoaux
|  2> !PAL4
|  3>
|  4> * xyz 0 2
|  5>  C      9.8973201565     -3.6758472309     -7.8351971016
|  6>  H      9.7978248893     -4.1369123963     -8.8288215485
|  7>  H     10.4358780606     -2.8337614942     -7.6854923133
|  8>  H      9.2177190533     -3.9762898371     -7.0942645680
|  9> *
| 10>
| 11> %EPRNMR
| 12>         GTENSOR   TRUE
| 13>         NUCLEI    = ALL H {AISO, ADIP, AORB}
| 14>         NUCLEI    = ALL C {AISO, ADIP, AORB}
| 15> END
| 16>
| 17>
| 18>                          ****END OF INPUT****

CARTESIAN COORDINATES (ANGSTROEM)
---------------------------------
  C      9.897320   -3.675847   -7.835197
  H      9.797825   -4.136912   -8.828822
  H     10.435878   -2.833761   -7.685492
  H      9.217719   -3.976290   -7.094265

 Total Charge           Charge          ....    0
 Multiplicity           Mult            ....    2
 Number of Electrons    NEL             ....    9
 Basis Dimension        Dim             ....   73

ORBITAL ENERGIES
----------------
                 SPIN UP ORBITALS
  NO   OCC          E(Eh)            E(eV)
   0   1.0000     -10.175963      -276.9020
   1   1.0000      -0.696074       -18.9411
   2   1.0000      -0.436260       -11.8712
   3   1.0000      -0.419807       -11.4235
   4   1.0000      -0.236572        -6.4375
   5   0.0000       0.001643         0.0447
   6   0.0000       0.036418         0.9910
   7   0.0000       0.037544         1.0216
   8   0.0000       0.047588         1.2949
   9   0.0000       0.090452         2.4613

                 SPIN DOWN ORBITALS
  NO   OCC          E(Eh)            E(eV)
   0   1.0000     -10.161631      -276.5120
   1   1.0000      -0.657252       -17.8847
   2   1.0000      -0.426183       -11.5970
   3   1.0000      -0.410141       -11.1605
   4   0.0000      -0.078564        -2.1378
   5   0.0000       0.004492         0.1222
   6   0.0000       0.036011         0.9799
   7   0.0000       0.037129         1.0103
   8   0.0000       0.060706         1.6519

MULLIKEN ATOMIC CHARGES AND SPIN POPULATIONS
--------------------------------------------
   0 C :   -0.425396    1.094757
   1 H :    0.138239   -0.034315
   2 H :    0.147273   -0.028847
   3 H :    0.139884   -0.031596
Sum of atomic charges         :   -0.0000000

LOEWDIN ATOMIC CHARGES AND SPIN POPULATIONS
-------------------------------------------
   0 C :   -0.122956    0.894711
   1 H :    0.064595    0.027340
   2 H :    0.018642    0.042296
   3 H :    0.039718    0.035654

  Mayer bond orders larger than 0.100000
B(  0-C ,  1-H ) :   0.9809 B(  0-C ,  2-H ) :   0.9809 B(  0-C ,  3-H ) :   0.9815

FINAL SINGLE POINT ENERGY       -39.824018670886

DIPOLE MOMENT
-------------
                                X             Y             Z
Electronic contribution:      0.12540      -0.01316       0.06326
Nuclear contribution   :     -0.18028       0.06039      -0.07719
                        -----------------------------------------
Total Dipole Moment    :     -0.05487       0.04723      -0.01392
                        -----------------------------------------
Magnitude (a.u.)       :      0.07373
Magnitude (Debye)      :      0.18741

Rotational constants in cm-1:    10.535417     9.516457     5.052414
Rotational constants in MHz : 315843.854392 285296.214048 151467.563614

                             ****ORCA TERMINATED NORMALLY****
TOTAL RUN TIME: 0 days 0 hours 0 minutes 23 seconds 567 msec
