                         Program Version 5.0.3 -  RELEASE  -
|  1> !B3LYP EPR-III Autoaux
|  2> !PAL4
|  3>
|  4> * xyz 0 2
|  5>  C    -63.4764717264    -86.4135346866    -26.5088985953
|  6>  H    -62.5804433310    -87.0134136791    -26.5741353186
|  7>  H    -63.4974028561    -85.3881251028    -26.3735936310
|  8>  H    -64.5394654985    -86.7911516444    -26.5489783337
|  9> *
| 10>
| 11> %EPRNMR
| 12>         GTENSOR   TRUE
| 13>         NUCLEI    = ALL H {AISO, ADIP, AORB}
| 14>         NUCLEI    = ALL C {AISO, ADIP, AORB}
| 15> END
| 16>
| 17>
| 18>                          ****END OF INPUT****

CARTESIAN COORDINATES (ANGSTROEM)
---------------------------------
  C    -63.476472  -86.413535  -26.508899
  H    -62.580443  -87.013414  -26.574135
  H    -63.497403  -85.388125  -26.373594
  H    -64.539465  -86.791152  -26.548978

 Total Charge           Charge          ....    0
 Multiplicity           Mult            ....    2
 Number of Electrons    NEL             ....    9
 Basis Dimension        Dim             ....   73

ORBITAL ENERGIES
----------------
                 SPIN UP ORBITALS
  NO   OCC          E(Eh)            E(eV)
   0   1.0000     -10.184419      -277.1321
   1   1.0000      -0.688742       -18.7416
   2   1.0000      -0.440043       -11.9742
   3   1.0000      -0.404033       -10.9943
   4   1.0000      -0.234906        -6.3921
   5   0.0000       0.000743         0.0202
   6   0.0000       0.034784         0.9465
   7   0.0000       0.038538         1.0487
   8   0.0000       0.047465         1.2916
   9   0.0000       0.083710         2.2779

                 SPIN DOWN ORBITALS
  NO   OCC          E(Eh)            E(eV)
   0   1.0000     -10.169971      -276.7390
   1   1.0000      -0.649376       -17.6704
   2   1.0000      -0.430644       -11.7184
   3   1.0000      -0.394400       -10.7322
   4   0.0000      -0.077424        -2.1068
   5   0.0000       0.003913         0.1065
   6   0.0000       0.034455         0.9376
   7   0.0000       0.038133         1.0376
   8   0.0000       0.060717         1.6522

MULLIKEN ATOMIC CHARGES AND SPIN POPULATIONS
--------------------------------------------
   0 C :   -0.430345    1.104605
   1 H :    0.151501   -0.033181
   2 H :    0.143633   -0.032775
   3 H :    0.135211   -0.038648
Sum of atomic charges         :   -0.0000000

LOEWDIN ATOMIC CHARGES AND SPIN POPULATIONS
-------------------------------------------
   0 C :   -0.149495    0.907677
   1 H :    0.052199    0.030440
   2 H :    0.025534    0.038767
   3 H :    0.071763    0.023116

  Mayer bond orders larger than 0.100000
B(  0-C ,  1-H ) :   0.9760 B(  0-C ,  2-H ) :   0.9780 B(  0-C ,  3-H ) :   0.9788

FINAL SINGLE POINT ENERGY       -39.823125406533

DIPOLE MOMENT
-------------
                                X             Y             Z
Electronic contribution:      0.13803      -0.01637      -0.01317
Nuclear contribution   :     -0.14082       0.03591       0.02248
                        -----------------------------------------
Total Dipole Moment    :     -0.00280       0.01954       0.00930
                        -----------------------------------------
Magnitude (a.u.)       :      0.02182
Magnitude (Debye)      :      0.05546

Rotational constants in cm-1:    11.020749     8.397915     4.766519
Rotational constants in MHz : 330393.754640 251763.165848 142896.640417

                             ****ORCA TERMINATED NORMALLY****
TOTAL RUN TIME: 0 days 0 hours 0 minutes 38 seconds 556 msec
