                         Program Version 5.0.3 -  RELEASE  -
|  1> !B3LYP EPR-III Autoaux
|  2> !PAL4
|  3>
|  4> * xyz 0 2
|  5>  C     -0.1673689079    -15.1286424289    -10.4502780930
|  6>  H      0.6515648173    -14.4965727365    -10.5831936410
|  7>  H     -0.7272579474    -14.8613616538     -9.5039358581
|  8>  H     -0.6633137362    -15.8443817024    -11.0998097916
|  9> *
| 10>
| 11> %EPRNMR
| 12>         GTENSOR   TRUE
| 13>         NUCLEI    = ALL H {AISO, ADIP, AORB}
| 14>         NUCLEI    = ALL C {AISO, ADIP, AORB}
| 15> END
| 16>
| 17>
| 18>                          ****END OF INPUT****

CARTESIAN COORDINATES (ANGSTROEM)
---------------------------------
  C     -0.167369  -15.128642  -10.450278
  H      0.651565  -14.496573  -10.583194
  H     -0.727258  -14.861362   -9.503936
  H     -0.663314  -15.844382  -11.099810

 Total Charge           Charge          ....    0
 Multiplicity           Mult            ....    2
 Number of Electrons    NEL             ....    9
 Basis Dimension        Dim             ....   73

ORBITAL ENERGIES
----------------
                 SPIN UP ORBITALS
  NO   OCC          E(Eh)            E(eV)
   0   1.0000     -10.186641      -277.1926
   1   1.0000      -0.687225       -18.7003
   2   1.0000      -0.444003       -12.0819
   3   1.0000      -0.397318       -10.8116
   4   1.0000      -0.236088        -6.4243
   5   0.0000       0.000613         0.0167
   6   0.0000       0.034415         0.9365
   7   0.0000       0.038907         1.0587
   8   0.0000       0.047391         1.2896
   9   0.0000       0.083049         2.2599

                 SPIN DOWN ORBITALS
  NO   OCC          E(Eh)            E(eV)
   0   1.0000     -10.172133      -276.7978
   1   1.0000      -0.647894       -17.6301
   2   1.0000      -0.434564       -11.8251
   3   1.0000      -0.387786       -10.5522
   4   0.0000      -0.078059        -2.1241
   5   0.0000       0.003767         0.1025
   6   0.0000       0.034094         0.9277
   7   0.0000       0.038526         1.0484
   8   0.0000       0.060603         1.6491

MULLIKEN ATOMIC CHARGES AND SPIN POPULATIONS
--------------------------------------------
   0 C :   -0.428600    1.103795
   1 H :    0.151063   -0.032026
   2 H :    0.126297   -0.037978
   3 H :    0.151240   -0.033791
Sum of atomic charges         :    0.0000000

LOEWDIN ATOMIC CHARGES AND SPIN POPULATIONS
-------------------------------------------
   0 C :   -0.154787    0.910126
   1 H :    0.030976    0.037052
   2 H :    0.069612    0.023222
   3 H :    0.054199    0.029600

  Mayer bond orders larger than 0.100000
B(  0-C ,  1-H ) :   0.9770 B(  0-C ,  2-H ) :   0.9796 B(  0-C ,  3-H ) :   0.9756

FINAL SINGLE POINT ENERGY       -39.822792025486

DIPOLE MOMENT
-------------
                                X             Y             Z
Electronic contribution:      0.14791      -0.09651      -0.13724
Nuclear contribution   :     -0.17755       0.13761       0.12284
                        -----------------------------------------
Total Dipole Moment    :     -0.02964       0.04110      -0.01440
                        -----------------------------------------
Magnitude (a.u.)       :      0.05268
Magnitude (Debye)      :      0.13390

Rotational constants in cm-1:    10.407595     8.609148     4.735241
Rotational constants in MHz : 312011.861185 258095.771561 141958.955904

                             ****ORCA TERMINATED NORMALLY****
TOTAL RUN TIME: 0 days 0 hours 0 minutes 20 seconds 960 msec
