                         Program Version 5.0.3 -  RELEASE  -
|  1> !B3LYP EPR-III Autoaux
|  2> !PAL4
|  3>
|  4> * xyz 0 2
|  5>  C      0.4815686203    -14.3533995860    -10.2488254970
|  6>  H      0.6206021812    -15.3910653057    -10.1761408953
|  7>  H      1.1095439421    -13.5195660536     -9.7168185895
|  8>  H     -0.1529064934    -14.0097976940    -11.0630498753
|  9> *
| 10>
| 11> %EPRNMR
| 12>         GTENSOR   TRUE
| 13>         NUCLEI    = ALL H {AISO, ADIP, AORB}
| 14>         NUCLEI    = ALL C {AISO, ADIP, AORB}
| 15> END
| 16>
| 17>
| 18>                          ****END OF INPUT****

CARTESIAN COORDINATES (ANGSTROEM)
---------------------------------
  C      0.481569  -14.353400  -10.248825
  H      0.620602  -15.391065  -10.176141
  H      1.109544  -13.519566   -9.716819
  H     -0.152906  -14.009798  -11.063050

 Total Charge           Charge          ....    0
 Multiplicity           Mult            ....    2
 Number of Electrons    NEL             ....    9
 Basis Dimension        Dim             ....   73

ORBITAL ENERGIES
----------------
                 SPIN UP ORBITALS
  NO   OCC          E(Eh)            E(eV)
   0   1.0000     -10.190961      -277.3101
   1   1.0000      -0.683480       -18.5984
   2   1.0000      -0.429111       -11.6767
   3   1.0000      -0.405129       -11.0241
   4   1.0000      -0.236472        -6.4347
   5   0.0000      -0.000155        -0.0042
   6   0.0000       0.035406         0.9634
   7   0.0000       0.037965         1.0331
   8   0.0000       0.047311         1.2874
   9   0.0000       0.078530         2.1369

                 SPIN DOWN ORBITALS
  NO   OCC          E(Eh)            E(eV)
   0   1.0000     -10.176348      -276.9125
   1   1.0000      -0.644103       -17.5269
   2   1.0000      -0.419633       -11.4188
   3   1.0000      -0.395814       -10.7706
   4   0.0000      -0.078035        -2.1234
   5   0.0000       0.003199         0.0871
   6   0.0000       0.035157         0.9567
   7   0.0000       0.037640         1.0242
   8   0.0000       0.060553         1.6477

MULLIKEN ATOMIC CHARGES AND SPIN POPULATIONS
--------------------------------------------
   0 C :   -0.425903    1.104763
   1 H :    0.148882   -0.031071
   2 H :    0.140401   -0.039208
   3 H :    0.136621   -0.034484
Sum of atomic charges         :    0.0000000

LOEWDIN ATOMIC CHARGES AND SPIN POPULATIONS
-------------------------------------------
   0 C :   -0.166230    0.916452
   1 H :    0.031184    0.036436
   2 H :    0.086244    0.016932
   3 H :    0.048802    0.030180

  Mayer bond orders larger than 0.100000
B(  0-C ,  1-H ) :   0.9745 B(  0-C ,  2-H ) :   0.9732 B(  0-C ,  3-H ) :   0.9759

FINAL SINGLE POINT ENERGY       -39.822040446711

DIPOLE MOMENT
-------------
                                X             Y             Z
Electronic contribution:     -0.06388      -0.10918       0.09981
Nuclear contribution   :      0.09933       0.10475      -0.15704
                        -----------------------------------------
Total Dipole Moment    :      0.03545      -0.00442      -0.05723
                        -----------------------------------------
Magnitude (a.u.)       :      0.06746
Magnitude (Debye)      :      0.17147

Rotational constants in cm-1:    10.170640     8.268392     4.597745
Rotational constants in MHz : 304908.110809 247880.146198 137836.915816

                             ****ORCA TERMINATED NORMALLY****
TOTAL RUN TIME: 0 days 0 hours 0 minutes 21 seconds 225 msec
