                         Program Version 5.0.3 -  RELEASE  -
|  1> !B3LYP EPR-III Autoaux
|  2> !PAL4
|  3>
|  4> * xyz 0 2
|  5>  C    -21.2991433245    -38.9723646164    -15.8986715404
|  6>  H    -21.3903936673    -40.1092850663    -15.7190829772
|  7>  H    -20.3266664797    -38.6766832314    -16.1889271886
|  8>  H    -22.0527110146    -38.2349952674    -15.7016006193
|  9> *
| 10>
| 11> %EPRNMR
| 12>         GTENSOR   TRUE
| 13>         NUCLEI    = ALL H {AISO, ADIP, AORB}
| 14>         NUCLEI    = ALL C {AISO, ADIP, AORB}
| 15> END
| 16>
| 17>
| 18>                          ****END OF INPUT****

CARTESIAN COORDINATES (ANGSTROEM)
---------------------------------
  C    -21.299143  -38.972365  -15.898672
  H    -21.390394  -40.109285  -15.719083
  H    -20.326666  -38.676683  -16.188927
  H    -22.052711  -38.234995  -15.701601

 Total Charge           Charge          ....    0
 Multiplicity           Mult            ....    2
 Number of Electrons    NEL             ....    9
 Basis Dimension        Dim             ....   73

ORBITAL ENERGIES
----------------
                 SPIN UP ORBITALS
  NO   OCC          E(Eh)            E(eV)
   0   1.0000     -10.188416      -277.2409
   1   1.0000      -0.684887       -18.6367
   2   1.0000      -0.431981       -11.7548
   3   1.0000      -0.406699       -11.0669
   4   1.0000      -0.235197        -6.4000
   5   0.0000       0.000269         0.0073
   6   0.0000       0.035358         0.9621
   7   0.0000       0.037976         1.0334
   8   0.0000       0.047399         1.2898
   9   0.0000       0.080831         2.1995

                 SPIN DOWN ORBITALS
  NO   OCC          E(Eh)            E(eV)
   0   1.0000     -10.173884      -276.8455
   1   1.0000      -0.645367       -17.5613
   2   1.0000      -0.422604       -11.4996
   3   1.0000      -0.397332       -10.8120
   4   0.0000      -0.077408        -2.1064
   5   0.0000       0.003570         0.0972
   6   0.0000       0.035043         0.9536
   7   0.0000       0.037626         1.0238
   8   0.0000       0.060679         1.6512

MULLIKEN ATOMIC CHARGES AND SPIN POPULATIONS
--------------------------------------------
   0 C :   -0.427875    1.105784
   1 H :    0.137916   -0.039496
   2 H :    0.140966   -0.033357
   3 H :    0.148992   -0.032931
Sum of atomic charges         :    0.0000000

LOEWDIN ATOMIC CHARGES AND SPIN POPULATIONS
-------------------------------------------
   0 C :   -0.160290    0.913421
   1 H :    0.080304    0.019228
   2 H :    0.034850    0.035156
   3 H :    0.045136    0.032194

  Mayer bond orders larger than 0.100000
B(  0-C ,  1-H ) :   0.9754 B(  0-C ,  2-H ) :   0.9762 B(  0-C ,  3-H ) :   0.9750

FINAL SINGLE POINT ENERGY       -39.823989217248

DIPOLE MOMENT
-------------
                                X             Y             Z
Electronic contribution:     -0.07009       0.08984      -0.04156
Nuclear contribution   :      0.09568      -0.07785       0.06476
                        -----------------------------------------
Total Dipole Moment    :      0.02558       0.01199       0.02320
                        -----------------------------------------
Magnitude (a.u.)       :      0.03656
Magnitude (Debye)      :      0.09292

Rotational constants in cm-1:    10.339728     8.427603     4.651389
Rotational constants in MHz : 309977.234787 252653.186119 139445.139147

                             ****ORCA TERMINATED NORMALLY****
TOTAL RUN TIME: 0 days 0 hours 0 minutes 21 seconds 153 msec
