                         Program Version 5.0.3 -  RELEASE  -
|  1> !B3LYP EPR-III Autoaux
|  2> !PAL4
|  3>
|  4> * xyz 0 2
|  5>  C    -62.3411560472    -85.0628541928    -26.2332512230
|  6>  H    -62.2986825408    -86.1563970840    -26.3308448082
|  7>  H    -61.3080487997    -84.5240219663    -26.1685202474
|  8>  H    -63.2739292083    -84.4272001046    -26.2181842266
|  9> *
| 10>
| 11> %EPRNMR
| 12>         GTENSOR   TRUE
| 13>         NUCLEI    = ALL H {AISO, ADIP, AORB}
| 14>         NUCLEI    = ALL C {AISO, ADIP, AORB}
| 15> END
| 16>
| 17>
| 18>                          ****END OF INPUT****

CARTESIAN COORDINATES (ANGSTROEM)
---------------------------------
  C    -62.341156  -85.062854  -26.233251
  H    -62.298683  -86.156397  -26.330845
  H    -61.308049  -84.524022  -26.168520
  H    -63.273929  -84.427200  -26.218184

 Total Charge           Charge          ....    0
 Multiplicity           Mult            ....    2
 Number of Electrons    NEL             ....    9
 Basis Dimension        Dim             ....   73

ORBITAL ENERGIES
----------------
                 SPIN UP ORBITALS
  NO   OCC          E(Eh)            E(eV)
   0   1.0000     -10.199380      -277.5392
   1   1.0000      -0.674424       -18.3520
   2   1.0000      -0.424559       -11.5528
   3   1.0000      -0.399425       -10.8689
   4   1.0000      -0.235076        -6.3967
   5   0.0000      -0.001185        -0.0322
   6   0.0000       0.035344         0.9618
   7   0.0000       0.037715         1.0263
   8   0.0000       0.047215         1.2848
   9   0.0000       0.081553         2.2192

                 SPIN DOWN ORBITALS
  NO   OCC          E(Eh)            E(eV)
   0   1.0000     -10.184631      -277.1379
   1   1.0000      -0.634314       -17.2606
   2   1.0000      -0.415578       -11.3085
   3   1.0000      -0.390556       -10.6276
   4   0.0000      -0.076895        -2.0924
   5   0.0000       0.002559         0.0696
   6   0.0000       0.035079         0.9546
   7   0.0000       0.037459         1.0193
   8   0.0000       0.060615         1.6494

MULLIKEN ATOMIC CHARGES AND SPIN POPULATIONS
--------------------------------------------
   0 C :   -0.427735    1.113246
   1 H :    0.147168   -0.035515
   2 H :    0.133409   -0.040477
   3 H :    0.147158   -0.037254
Sum of atomic charges         :    0.0000000

LOEWDIN ATOMIC CHARGES AND SPIN POPULATIONS
-------------------------------------------
   0 C :   -0.192709    0.929909
   1 H :    0.050571    0.028513
   2 H :    0.077221    0.018038
   3 H :    0.064917    0.023540

  Mayer bond orders larger than 0.100000
B(  0-C ,  1-H ) :   0.9697 B(  0-C ,  2-H ) :   0.9717 B(  0-C ,  3-H ) :   0.9689

FINAL SINGLE POINT ENERGY       -39.822117943261

DIPOLE MOMENT
-------------
                                X             Y             Z
Electronic contribution:     -0.10644      -0.06417       0.00537
Nuclear contribution   :      0.10703       0.06067      -0.01334
                        -----------------------------------------
Total Dipole Moment    :      0.00059      -0.00350      -0.00797
                        -----------------------------------------
Magnitude (a.u.)       :      0.00872
Magnitude (Debye)      :      0.02217

Rotational constants in cm-1:     9.091941     8.352211     4.353684
Rotational constants in MHz : 272569.521169 250392.996979 130520.149495

                             ****ORCA TERMINATED NORMALLY****
TOTAL RUN TIME: 0 days 0 hours 0 minutes 19 seconds 988 msec
