                         Program Version 5.0.3 -  RELEASE  -
|  1> !B3LYP EPR-III Autoaux
|  2> !PAL4
|  3>
|  4> * xyz 0 2
|  5>  C    -11.3814288359    -27.8343329836    -13.3511330348
|  6>  H    -12.3764010687    -28.2360459843    -13.0754459276
|  7>  H    -10.4888834428    -28.3379495309    -12.9274958144
|  8>  H    -11.1787744472    -26.9231000753    -13.8837224269
|  9> *
| 10>
| 11> %EPRNMR
| 12>         GTENSOR   TRUE
| 13>         NUCLEI    = ALL H {AISO, ADIP, AORB}
| 14>         NUCLEI    = ALL C {AISO, ADIP, AORB}
| 15> END
| 16>
| 17>
| 18>                          ****END OF INPUT****

CARTESIAN COORDINATES (ANGSTROEM)
---------------------------------
  C    -11.381429  -27.834333  -13.351133
  H    -12.376401  -28.236046  -13.075446
  H    -10.488883  -28.337950  -12.927496
  H    -11.178774  -26.923100  -13.883722

 Total Charge           Charge          ....    0
 Multiplicity           Mult            ....    2
 Number of Electrons    NEL             ....    9
 Basis Dimension        Dim             ....   73

ORBITAL ENERGIES
----------------
                 SPIN UP ORBITALS
  NO   OCC          E(Eh)            E(eV)
   0   1.0000     -10.189406      -277.2678
   1   1.0000      -0.683280       -18.5930
   2   1.0000      -0.429731       -11.6936
   3   1.0000      -0.407982       -11.1017
   4   1.0000      -0.235311        -6.4031
   5   0.0000       0.000384         0.0105
   6   0.0000       0.035539         0.9671
   7   0.0000       0.037911         1.0316
   8   0.0000       0.047395         1.2897
   9   0.0000       0.084997         2.3129

                 SPIN DOWN ORBITALS
  NO   OCC          E(Eh)            E(eV)
   0   1.0000     -10.174865      -276.8722
   1   1.0000      -0.643735       -17.5169
   2   1.0000      -0.420500       -11.4424
   3   1.0000      -0.398559       -10.8453
   4   0.0000      -0.077463        -2.1079
   5   0.0000       0.003664         0.0997
   6   0.0000       0.035215         0.9582
   7   0.0000       0.037541         1.0215
   8   0.0000       0.060677         1.6511

MULLIKEN ATOMIC CHARGES AND SPIN POPULATIONS
--------------------------------------------
   0 C :   -0.426822    1.105433
   1 H :    0.145775   -0.035463
   2 H :    0.134942   -0.036327
   3 H :    0.146105   -0.033643
Sum of atomic charges         :    0.0000000

LOEWDIN ATOMIC CHARGES AND SPIN POPULATIONS
-------------------------------------------
   0 C :   -0.164869    0.914829
   1 H :    0.061046    0.026474
   2 H :    0.059049    0.026709
   3 H :    0.044774    0.031989

  Mayer bond orders larger than 0.100000
B(  0-C ,  1-H ) :   0.9742 B(  0-C ,  2-H ) :   0.9765 B(  0-C ,  3-H ) :   0.9750

FINAL SINGLE POINT ENERGY       -39.826717955307

DIPOLE MOMENT
-------------
                                X             Y             Z
Electronic contribution:     -0.06825       0.01568      -0.09161
Nuclear contribution   :      0.07512       0.00442       0.12496
                        -----------------------------------------
Total Dipole Moment    :      0.00686       0.02010       0.03336
                        -----------------------------------------
Magnitude (a.u.)       :      0.03955
Magnitude (Debye)      :      0.10052

Rotational constants in cm-1:     9.904234     8.682379     4.639746
Rotational constants in MHz : 296921.450696 260291.175497 139096.084252

                             ****ORCA TERMINATED NORMALLY****
TOTAL RUN TIME: 0 days 0 hours 0 minutes 22 seconds 580 msec
