                         Program Version 5.0.3 -  RELEASE  -
|  1> !B3LYP EPR-III Autoaux
|  2> !PAL4
|  3>
|  4> * xyz 0 2
|  5>  C    -62.7717315388    -85.5436238958    -26.3334124178
|  6>  H    -62.3622751152    -86.5272300523    -26.4204312407
|  7>  H    -61.9433326899    -84.8104585246    -26.2314448455
|  8>  H    -63.7773855839    -85.4256020198    -26.3544819451
|  9> *
| 10>
| 11> %EPRNMR
| 12>         GTENSOR   TRUE
| 13>         NUCLEI    = ALL H {AISO, ADIP, AORB}
| 14>         NUCLEI    = ALL C {AISO, ADIP, AORB}
| 15> END
| 16>
| 17>
| 18>                          ****END OF INPUT****

CARTESIAN COORDINATES (ANGSTROEM)
---------------------------------
  C    -62.771732  -85.543624  -26.333412
  H    -62.362275  -86.527230  -26.420431
  H    -61.943333  -84.810459  -26.231445
  H    -63.777386  -85.425602  -26.354482

 Total Charge           Charge          ....    0
 Multiplicity           Mult            ....    2
 Number of Electrons    NEL             ....    9
 Basis Dimension        Dim             ....   73

ORBITAL ENERGIES
----------------
                 SPIN UP ORBITALS
  NO   OCC          E(Eh)            E(eV)
   0   1.0000     -10.179404      -276.9957
   1   1.0000      -0.693408       -18.8686
   2   1.0000      -0.448505       -12.2044
   3   1.0000      -0.403281       -10.9738
   4   1.0000      -0.234992        -6.3945
   5   0.0000       0.001318         0.0359
   6   0.0000       0.034372         0.9353
   7   0.0000       0.038922         1.0591
   8   0.0000       0.047535         1.2935
   9   0.0000       0.084077         2.2879

                 SPIN DOWN ORBITALS
  NO   OCC          E(Eh)            E(eV)
   0   1.0000     -10.165047      -276.6050
   1   1.0000      -0.654167       -17.8008
   2   1.0000      -0.438927       -11.9438
   3   1.0000      -0.393521       -10.7083
   4   0.0000      -0.077676        -2.1137
   5   0.0000       0.004322         0.1176
   6   0.0000       0.034022         0.9258
   7   0.0000       0.038482         1.0472
   8   0.0000       0.060729         1.6525

MULLIKEN ATOMIC CHARGES AND SPIN POPULATIONS
--------------------------------------------
   0 C :   -0.431416    1.101501
   1 H :    0.133856   -0.034775
   2 H :    0.142596   -0.037541
   3 H :    0.154964   -0.029185
Sum of atomic charges         :    0.0000000

LOEWDIN ATOMIC CHARGES AND SPIN POPULATIONS
-------------------------------------------
   0 C :   -0.133926    0.900019
   1 H :    0.046479    0.032757
   2 H :    0.068706    0.025307
   3 H :    0.018741    0.041917

  Mayer bond orders larger than 0.100000
B(  0-C ,  1-H ) :   0.9812 B(  0-C ,  2-H ) :   0.9797 B(  0-C ,  3-H ) :   0.9799

FINAL SINGLE POINT ENERGY       -39.821672714564

DIPOLE MOMENT
-------------
                                X             Y             Z
Electronic contribution:     -0.16246       0.07924       0.00287
Nuclear contribution   :      0.17403      -0.09925      -0.00459
                        -----------------------------------------
Total Dipole Moment    :      0.01157      -0.02001      -0.00172
                        -----------------------------------------
Magnitude (a.u.)       :      0.02317
Magnitude (Debye)      :      0.05890

Rotational constants in cm-1:    11.083419     8.853780     4.921963
Rotational constants in MHz : 332272.551222 265429.654129 147556.740288

                             ****ORCA TERMINATED NORMALLY****
TOTAL RUN TIME: 0 days 0 hours 0 minutes 20 seconds 107 msec
