                         Program Version 5.0.3 -  RELEASE  -
|  1> !B3LYP EPR-III Autoaux
|  2> !PAL4
|  3>
|  4> * xyz 0 2
|  5>  C    -64.9436272648    -88.1239321155    -26.8435194950
|  6>  H    -64.0854566738    -87.4766915348    -26.7834891905
|  7>  H    -65.9110691339    -87.5665067432    -26.7850862801
|  8>  H    -64.7095350068    -89.1116569042    -26.9007228777
|  9> *
| 10>
| 11> %EPRNMR
| 12>         GTENSOR   TRUE
| 13>         NUCLEI    = ALL H {AISO, ADIP, AORB}
| 14>         NUCLEI    = ALL C {AISO, ADIP, AORB}
| 15> END
| 16>
| 17>
| 18>                          ****END OF INPUT****

CARTESIAN COORDINATES (ANGSTROEM)
---------------------------------
  C    -64.943627  -88.123932  -26.843519
  H    -64.085457  -87.476692  -26.783489
  H    -65.911069  -87.566507  -26.785086
  H    -64.709535  -89.111657  -26.900723

 Total Charge           Charge          ....    0
 Multiplicity           Mult            ....    2
 Number of Electrons    NEL             ....    9
 Basis Dimension        Dim             ....   73

ORBITAL ENERGIES
----------------
                 SPIN UP ORBITALS
  NO   OCC          E(Eh)            E(eV)
   0   1.0000     -10.181193      -277.0444
   1   1.0000      -0.692047       -18.8316
   2   1.0000      -0.444206       -12.0875
   3   1.0000      -0.404192       -10.9986
   4   1.0000      -0.234997        -6.3946
   5   0.0000       0.001089         0.0296
   6   0.0000       0.034445         0.9373
   7   0.0000       0.038802         1.0559
   8   0.0000       0.047509         1.2928
   9   0.0000       0.082151         2.2354

                 SPIN DOWN ORBITALS
  NO   OCC          E(Eh)            E(eV)
   0   1.0000     -10.166801      -276.6527
   1   1.0000      -0.652818       -17.7641
   2   1.0000      -0.434731       -11.8296
   3   1.0000      -0.394379       -10.7316
   4   0.0000      -0.077599        -2.1116
   5   0.0000       0.004153         0.1130
   6   0.0000       0.034120         0.9285
   7   0.0000       0.038368         1.0441
   8   0.0000       0.060722         1.6523

MULLIKEN ATOMIC CHARGES AND SPIN POPULATIONS
--------------------------------------------
   0 C :   -0.431561    1.102836
   1 H :    0.131333   -0.035076
   2 H :    0.146913   -0.037355
   3 H :    0.153315   -0.030406
Sum of atomic charges         :    0.0000000

LOEWDIN ATOMIC CHARGES AND SPIN POPULATIONS
-------------------------------------------
   0 C :   -0.140011    0.902806
   1 H :    0.048712    0.031712
   2 H :    0.071620    0.024094
   3 H :    0.019679    0.041388

  Mayer bond orders larger than 0.100000
B(  0-C ,  1-H ) :   0.9809 B(  0-C ,  2-H ) :   0.9776 B(  0-C ,  3-H ) :   0.9795

FINAL SINGLE POINT ENERGY       -39.821525246741

DIPOLE MOMENT
-------------
                                X             Y             Z
Electronic contribution:     -0.07400      -0.15049      -0.03185
Nuclear contribution   :      0.09355       0.16259       0.04591
                        -----------------------------------------
Total Dipole Moment    :      0.01955       0.01210       0.01406
                        -----------------------------------------
Magnitude (a.u.)       :      0.02695
Magnitude (Debye)      :      0.06851

Rotational constants in cm-1:    11.137211     8.632948     4.864792
Rotational constants in MHz : 333885.187881 258809.260332 145842.803058

                             ****ORCA TERMINATED NORMALLY****
TOTAL RUN TIME: 0 days 0 hours 0 minutes 18 seconds 969 msec
