                         Program Version 5.0.3 -  RELEASE  -
|  1> !B3LYP EPR-III Autoaux
|  2> !PAL4
|  3>
|  4> * xyz 0 2
|  5>  C    -82.3783355418   -109.2834154124    -30.9482533067
|  6>  H    -83.4311514304   -109.2269109765    -30.9829659000
|  7>  H    -81.8666067302   -110.2270254834    -31.0223041472
|  8>  H    -81.6801288578   -108.5489765958    -30.8719840430
|  9> *
| 10>
| 11> %EPRNMR
| 12>         GTENSOR   TRUE
| 13>         NUCLEI    = ALL H {AISO, ADIP, AORB}
| 14>         NUCLEI    = ALL C {AISO, ADIP, AORB}
| 15> END
| 16>
| 17>
| 18>                          ****END OF INPUT****

CARTESIAN COORDINATES (ANGSTROEM)
---------------------------------
  C    -82.378336  -109.283415  -30.948253
  H    -83.431151  -109.226911  -30.982966
  H    -81.866607  -110.227025  -31.022304
  H    -81.680129  -108.548977  -30.871984

 Total Charge           Charge          ....    0
 Multiplicity           Mult            ....    2
 Number of Electrons    NEL             ....    9
 Basis Dimension        Dim             ....   73

ORBITAL ENERGIES
----------------
                 SPIN UP ORBITALS
  NO   OCC          E(Eh)            E(eV)
   0   1.0000     -10.174679      -276.8671
   1   1.0000      -0.697354       -18.9760
   2   1.0000      -0.449628       -12.2350
   3   1.0000      -0.408496       -11.1158
   4   1.0000      -0.234854        -6.3907
   5   0.0000       0.001760         0.0479
   6   0.0000       0.034728         0.9450
   7   0.0000       0.038753         1.0545
   8   0.0000       0.047623         1.2959
   9   0.0000       0.090424         2.4606

                 SPIN DOWN ORBITALS
  NO   OCC          E(Eh)            E(eV)
   0   1.0000     -10.160415      -276.4789
   1   1.0000      -0.658328       -17.9140
   2   1.0000      -0.439943       -11.9714
   3   1.0000      -0.398489       -10.8434
   4   0.0000      -0.077769        -2.1162
   5   0.0000       0.004640         0.1263
   6   0.0000       0.034345         0.9346
   7   0.0000       0.038276         1.0415
   8   0.0000       0.060780         1.6539

MULLIKEN ATOMIC CHARGES AND SPIN POPULATIONS
--------------------------------------------
   0 C :   -0.430879    1.098717
   1 H :    0.151471   -0.031691
   2 H :    0.132275   -0.035258
   3 H :    0.147133   -0.031768
Sum of atomic charges         :    0.0000000

LOEWDIN ATOMIC CHARGES AND SPIN POPULATIONS
-------------------------------------------
   0 C :   -0.121611    0.893409
   1 H :    0.045416    0.034050
   2 H :    0.053317    0.031350
   3 H :    0.022879    0.041191

  Mayer bond orders larger than 0.100000
B(  0-C ,  1-H ) :   0.9807 B(  0-C ,  2-H ) :   0.9833 B(  0-C ,  3-H ) :   0.9824

FINAL SINGLE POINT ENERGY       -39.822048609940

DIPOLE MOMENT
-------------
                                X             Y             Z
Electronic contribution:     -0.10171       0.10971       0.01736
Nuclear contribution   :      0.11776      -0.11442      -0.02435
                        -----------------------------------------
Total Dipole Moment    :      0.01605      -0.00471      -0.00699
                        -----------------------------------------
Magnitude (a.u.)       :      0.01813
Magnitude (Debye)      :      0.04608

Rotational constants in cm-1:    11.606054     8.995274     5.068082
Rotational constants in MHz : 347940.750696 269671.530882 151937.272698

                             ****ORCA TERMINATED NORMALLY****
TOTAL RUN TIME: 0 days 0 hours 0 minutes 25 seconds 10 msec
