                         Program Version 5.0.3 -  RELEASE  -
|  1> !B3LYP EPR-III Autoaux
|  2> !PAL4
|  3>
|  4> * xyz 0 2
|  5>  C    -87.5266953418   -115.6594388305    -32.1366567019
|  6>  H    -86.9712635526   -114.6914626082    -32.0243614797
|  7>  H    -88.6461144255   -115.6312720934    -32.1803493562
|  8>  H    -86.8651039608   -116.4880213088    -32.1687301739
|  9> *
| 10>
| 11> %EPRNMR
| 12>         GTENSOR   TRUE
| 13>         NUCLEI    = ALL H {AISO, ADIP, AORB}
| 14>         NUCLEI    = ALL C {AISO, ADIP, AORB}
| 15> END
| 16>
| 17>
| 18>                          ****END OF INPUT****

CARTESIAN COORDINATES (ANGSTROEM)
---------------------------------
  C    -87.526695  -115.659439  -32.136657
  H    -86.971264  -114.691463  -32.024361
  H    -88.646114  -115.631272  -32.180349
  H    -86.865104  -116.488021  -32.168730

 Total Charge           Charge          ....    0
 Multiplicity           Mult            ....    2
 Number of Electrons    NEL             ....    9
 Basis Dimension        Dim             ....   73

ORBITAL ENERGIES
----------------
                 SPIN UP ORBITALS
  NO   OCC          E(Eh)            E(eV)
   0   1.0000     -10.190462      -277.2966
   1   1.0000      -0.682838       -18.5810
   2   1.0000      -0.433608       -11.7991
   3   1.0000      -0.402235       -10.9454
   4   1.0000      -0.234918        -6.3924
   5   0.0000       0.000137         0.0037
   6   0.0000       0.034873         0.9489
   7   0.0000       0.038332         1.0431
   8   0.0000       0.047373         1.2891
   9   0.0000       0.082042         2.2325

                 SPIN DOWN ORBITALS
  NO   OCC          E(Eh)            E(eV)
   0   1.0000     -10.175902      -276.9004
   1   1.0000      -0.643206       -17.5025
   2   1.0000      -0.424452       -11.5499
   3   1.0000      -0.392823       -10.6892
   4   0.0000      -0.077202        -2.1008
   5   0.0000       0.003497         0.0952
   6   0.0000       0.034582         0.9410
   7   0.0000       0.037958         1.0329
   8   0.0000       0.060683         1.6513

MULLIKEN ATOMIC CHARGES AND SPIN POPULATIONS
--------------------------------------------
   0 C :   -0.429511    1.108035
   1 H :    0.132062   -0.037772
   2 H :    0.149270   -0.036612
   3 H :    0.148178   -0.033651
Sum of atomic charges         :    0.0000000

LOEWDIN ATOMIC CHARGES AND SPIN POPULATIONS
-------------------------------------------
   0 C :   -0.167993    0.916650
   1 H :    0.063623    0.024787
   2 H :    0.067206    0.024215
   3 H :    0.037164    0.034348

  Mayer bond orders larger than 0.100000
B(  0-C ,  1-H ) :   0.9768 B(  0-C ,  2-H ) :   0.9727 B(  0-C ,  3-H ) :   0.9748

FINAL SINGLE POINT ENERGY       -39.824230547055

DIPOLE MOMENT
-------------
                                X             Y             Z
Electronic contribution:     -0.06333      -0.12184      -0.02155
Nuclear contribution   :      0.07315       0.12558       0.02738
                        -----------------------------------------
Total Dipole Moment    :      0.00982       0.00374       0.00583
                        -----------------------------------------
Magnitude (a.u.)       :      0.01202
Magnitude (Debye)      :      0.03055

Rotational constants in cm-1:    10.258987     8.334906     4.598914
Rotational constants in MHz : 307556.693522 249874.196761 137871.978221

                             ****ORCA TERMINATED NORMALLY****
TOTAL RUN TIME: 0 days 0 hours 0 minutes 22 seconds 90 msec
