                         Program Version 5.0.3 -  RELEASE  -
|  1> !B3LYP EPR-III Autoaux
|  2> !PAL4
|  3>
|  4> * xyz 0 2
|  5>  C    -35.2283325935    -54.6956053928    -19.4350617332
|  6>  H    -34.2950585533    -55.2248554430    -19.3845878902
|  7>  H    -35.3301767908    -53.6468053008    -19.3761079378
|  8>  H    -36.1560514113    -55.1481491511    -19.6190934111
|  9> *
| 10>
| 11> %EPRNMR
| 12>         GTENSOR   TRUE
| 13>         NUCLEI    = ALL H {AISO, ADIP, AORB}
| 14>         NUCLEI    = ALL C {AISO, ADIP, AORB}
| 15> END
| 16>
| 17>
| 18>                          ****END OF INPUT****

CARTESIAN COORDINATES (ANGSTROEM)
---------------------------------
  C    -35.228333  -54.695605  -19.435062
  H    -34.295059  -55.224855  -19.384588
  H    -35.330177  -53.646805  -19.376108
  H    -36.156051  -55.148149  -19.619093

 Total Charge           Charge          ....    0
 Multiplicity           Mult            ....    2
 Number of Electrons    NEL             ....    9
 Basis Dimension        Dim             ....   73

ORBITAL ENERGIES
----------------
                 SPIN UP ORBITALS
  NO   OCC          E(Eh)            E(eV)
   0   1.0000     -10.177732      -276.9502
   1   1.0000      -0.693821       -18.8798
   2   1.0000      -0.438801       -11.9404
   3   1.0000      -0.414991       -11.2925
   4   1.0000      -0.234749        -6.3878
   5   0.0000       0.001568         0.0427
   6   0.0000       0.035421         0.9639
   7   0.0000       0.038171         1.0387
   8   0.0000       0.047597         1.2952
   9   0.0000       0.090844         2.4720

                 SPIN DOWN ORBITALS
  NO   OCC          E(Eh)            E(eV)
   0   1.0000     -10.163419      -276.5607
   1   1.0000      -0.654696       -17.8152
   2   1.0000      -0.429334       -11.6828
   3   1.0000      -0.405002       -11.0207
   4   0.0000      -0.077569        -2.1108
   5   0.0000       0.004523         0.1231
   6   0.0000       0.035043         0.9536
   7   0.0000       0.037709         1.0261
   8   0.0000       0.060794         1.6543

MULLIKEN ATOMIC CHARGES AND SPIN POPULATIONS
--------------------------------------------
   0 C :   -0.429113    1.099668
   1 H :    0.148390   -0.032947
   2 H :    0.140196   -0.033565
   3 H :    0.140527   -0.033156
Sum of atomic charges         :   -0.0000000

LOEWDIN ATOMIC CHARGES AND SPIN POPULATIONS
-------------------------------------------
   0 C :   -0.131731    0.898120
   1 H :    0.052488    0.031179
   2 H :    0.041481    0.034752
   3 H :    0.037762    0.035949

  Mayer bond orders larger than 0.100000
B(  0-C ,  1-H ) :   0.9791 B(  0-C ,  2-H ) :   0.9811 B(  0-C ,  3-H ) :   0.9811

FINAL SINGLE POINT ENERGY       -39.825861096806

DIPOLE MOMENT
-------------
                                X             Y             Z
Electronic contribution:      0.06154      -0.04262       0.03544
Nuclear contribution   :     -0.07217       0.05022      -0.05591
                        -----------------------------------------
Total Dipole Moment    :     -0.01063       0.00760      -0.02047
                        -----------------------------------------
Magnitude (a.u.)       :      0.02429
Magnitude (Debye)      :      0.06174

Rotational constants in cm-1:    11.160725     8.951557     4.970964
Rotational constants in MHz : 334590.119681 268360.927085 149025.745405

                             ****ORCA TERMINATED NORMALLY****
TOTAL RUN TIME: 0 days 0 hours 0 minutes 31 seconds 439 msec
