                         Program Version 5.0.3 -  RELEASE  -
|  1> !B3LYP EPR-III Autoaux
|  2> !PAL4
|  3>
|  4> * xyz 0 2
|  5>  C    -81.7235574030   -108.4828120019    -30.7930460877
|  6>  H    -82.6214930960   -107.8801406179    -30.7551766744
|  7>  H    -81.8276820540   -109.5387415862    -30.8825050057
|  8>  H    -80.6012913747   -108.1574586807    -30.7136957629
|  9> *
| 10>
| 11> %EPRNMR
| 12>         GTENSOR   TRUE
| 13>         NUCLEI    = ALL H {AISO, ADIP, AORB}
| 14>         NUCLEI    = ALL C {AISO, ADIP, AORB}
| 15> END
| 16>
| 17>
| 18>                          ****END OF INPUT****

CARTESIAN COORDINATES (ANGSTROEM)
---------------------------------
  C    -81.723557  -108.482812  -30.793046
  H    -82.621493  -107.880141  -30.755177
  H    -81.827682  -109.538742  -30.882505
  H    -80.601291  -108.157459  -30.713696

 Total Charge           Charge          ....    0
 Multiplicity           Mult            ....    2
 Number of Electrons    NEL             ....    9
 Basis Dimension        Dim             ....   73

ORBITAL ENERGIES
----------------
                 SPIN UP ORBITALS
  NO   OCC          E(Eh)            E(eV)
   0   1.0000     -10.191627      -277.3283
   1   1.0000      -0.682303       -18.5664
   2   1.0000      -0.430477       -11.7139
   3   1.0000      -0.402957       -10.9650
   4   1.0000      -0.234962        -6.3936
   5   0.0000      -0.000356        -0.0097
   6   0.0000       0.034835         0.9479
   7   0.0000       0.038258         1.0410
   8   0.0000       0.047342         1.2882
   9   0.0000       0.076193         2.0733

                 SPIN DOWN ORBITALS
  NO   OCC          E(Eh)            E(eV)
   0   1.0000     -10.177028      -276.9310
   1   1.0000      -0.642651       -17.4874
   2   1.0000      -0.421371       -11.4661
   3   1.0000      -0.393526       -10.7084
   4   0.0000      -0.077133        -2.0989
   5   0.0000       0.003119         0.0849
   6   0.0000       0.034575         0.9408
   7   0.0000       0.037921         1.0319
   8   0.0000       0.060667         1.6508

MULLIKEN ATOMIC CHARGES AND SPIN POPULATIONS
--------------------------------------------
   0 C :   -0.430061    1.109264
   1 H :    0.150441   -0.033877
   2 H :    0.138891   -0.034236
   3 H :    0.140728   -0.041151
Sum of atomic charges         :   -0.0000000

LOEWDIN ATOMIC CHARGES AND SPIN POPULATIONS
-------------------------------------------
   0 C :   -0.170500    0.918569
   1 H :    0.048433    0.030699
   2 H :    0.036257    0.034107
   3 H :    0.085810    0.016625

  Mayer bond orders larger than 0.100000
B(  0-C ,  1-H ) :   0.9733 B(  0-C ,  2-H ) :   0.9751 B(  0-C ,  3-H ) :   0.9732

FINAL SINGLE POINT ENERGY       -39.821746858197

DIPOLE MOMENT
-------------
                                X             Y             Z
Electronic contribution:     -0.09754       0.06935      -0.01359
Nuclear contribution   :      0.09009      -0.09586       0.02081
                        -----------------------------------------
Total Dipole Moment    :     -0.00744      -0.02651       0.00722
                        -----------------------------------------
Magnitude (a.u.)       :      0.02847
Magnitude (Debye)      :      0.07235

Rotational constants in cm-1:    10.523511     8.019394     4.552010
Rotational constants in MHz : 315486.922059 240415.385806 136465.820959

                             ****ORCA TERMINATED NORMALLY****
TOTAL RUN TIME: 0 days 0 hours 0 minutes 22 seconds 740 msec
