                         Program Version 5.0.3 -  RELEASE  -
|  1> !B3LYP EPR-III Autoaux
|  2> !PAL4
|  3>
|  4> * xyz 0 2
|  5>  C    -28.7229199120    -47.3647218264    -17.7984052987
|  6>  H    -27.7794061254    -47.8649005997    -17.6620501089
|  7>  H    -28.7615721854    -46.2237456607    -17.7191363681
|  8>  H    -29.5677010901    -48.0051222959    -18.0131432080
|  9> *
| 10>
| 11> %EPRNMR
| 12>         GTENSOR   TRUE
| 13>         NUCLEI    = ALL H {AISO, ADIP, AORB}
| 14>         NUCLEI    = ALL C {AISO, ADIP, AORB}
| 15> END
| 16>
| 17>
| 18>                          ****END OF INPUT****

CARTESIAN COORDINATES (ANGSTROEM)
---------------------------------
  C    -28.722920  -47.364722  -17.798405
  H    -27.779406  -47.864901  -17.662050
  H    -28.761572  -46.223746  -17.719136
  H    -29.567701  -48.005122  -18.013143

 Total Charge           Charge          ....    0
 Multiplicity           Mult            ....    2
 Number of Electrons    NEL             ....    9
 Basis Dimension        Dim             ....   73

ORBITAL ENERGIES
----------------
                 SPIN UP ORBITALS
  NO   OCC          E(Eh)            E(eV)
   0   1.0000     -10.190186      -277.2891
   1   1.0000      -0.682635       -18.5754
   2   1.0000      -0.422587       -11.4992
   3   1.0000      -0.413699       -11.2573
   4   1.0000      -0.234734        -6.3874
   5   0.0000       0.000143         0.0039
   6   0.0000       0.035879         0.9763
   7   0.0000       0.037449         1.0190
   8   0.0000       0.047393         1.2896
   9   0.0000       0.081886         2.2282

                 SPIN DOWN ORBITALS
  NO   OCC          E(Eh)            E(eV)
   0   1.0000     -10.175634      -276.8931
   1   1.0000      -0.642993       -17.4967
   2   1.0000      -0.413477       -11.2513
   3   1.0000      -0.404245       -11.0001
   4   0.0000      -0.077064        -2.0970
   5   0.0000       0.003515         0.0956
   6   0.0000       0.035591         0.9685
   7   0.0000       0.037074         1.0088
   8   0.0000       0.060715         1.6521

MULLIKEN ATOMIC CHARGES AND SPIN POPULATIONS
--------------------------------------------
   0 C :   -0.427689    1.107385
   1 H :    0.139921   -0.034512
   2 H :    0.143129   -0.038405
   3 H :    0.144639   -0.034469
Sum of atomic charges         :    0.0000000

LOEWDIN ATOMIC CHARGES AND SPIN POPULATIONS
-------------------------------------------
   0 C :   -0.167101    0.916411
   1 H :    0.043650    0.031972
   2 H :    0.076015    0.020695
   3 H :    0.047437    0.030921

  Mayer bond orders larger than 0.100000
B(  0-C ,  1-H ) :   0.9754 B(  0-C ,  2-H ) :   0.9732 B(  0-C ,  3-H ) :   0.9747

FINAL SINGLE POINT ENERGY       -39.825628124137

DIPOLE MOMENT
-------------
                                X             Y             Z
Electronic contribution:     -0.03653      -0.01151      -0.00288
Nuclear contribution   :      0.04503       0.00030       0.00066
                        -----------------------------------------
Total Dipole Moment    :      0.00850      -0.01121      -0.00222
                        -----------------------------------------
Magnitude (a.u.)       :      0.01424
Magnitude (Debye)      :      0.03620

Rotational constants in cm-1:    10.105196     8.432401     4.596734
Rotational constants in MHz : 302946.150695 252797.009673 137806.611046

                             ****ORCA TERMINATED NORMALLY****
TOTAL RUN TIME: 0 days 0 hours 0 minutes 22 seconds 721 msec
