                         Program Version 5.0.3 -  RELEASE  -
|  1> !B3LYP EPR-III Autoaux
|  2> !PAL4
|  3>
|  4> * xyz 0 2
|  5>  C    -18.6139547102    -35.9843274327    -15.2032020896
|  6>  H    -18.6124267570    -34.8944309682    -15.5218659412
|  7>  H    -19.5436650186    -36.3036250485    -14.8681714367
|  8>  H    -17.8196067834    -36.6684294660    -15.2473048402
|  9> *
| 10>
| 11> %EPRNMR
| 12>         GTENSOR   TRUE
| 13>         NUCLEI    = ALL H {AISO, ADIP, AORB}
| 14>         NUCLEI    = ALL C {AISO, ADIP, AORB}
| 15> END
| 16>
| 17>
| 18>                          ****END OF INPUT****

CARTESIAN COORDINATES (ANGSTROEM)
---------------------------------
  C    -18.613955  -35.984327  -15.203202
  H    -18.612427  -34.894431  -15.521866
  H    -19.543665  -36.303625  -14.868171
  H    -17.819607  -36.668429  -15.247305

 Total Charge           Charge          ....    0
 Multiplicity           Mult            ....    2
 Number of Electrons    NEL             ....    9
 Basis Dimension        Dim             ....   73

ORBITAL ENERGIES
----------------
                 SPIN UP ORBITALS
  NO   OCC          E(Eh)            E(eV)
   0   1.0000     -10.182203      -277.0718
   1   1.0000      -0.690489       -18.7892
   2   1.0000      -0.437172       -11.8961
   3   1.0000      -0.410261       -11.1638
   4   1.0000      -0.234830        -6.3900
   5   0.0000       0.000972         0.0265
   6   0.0000       0.035267         0.9597
   7   0.0000       0.038137         1.0378
   8   0.0000       0.047509         1.2928
   9   0.0000       0.083023         2.2592

                 SPIN DOWN ORBITALS
  NO   OCC          E(Eh)            E(eV)
   0   1.0000     -10.167796      -276.6798
   1   1.0000      -0.651161       -17.7190
   2   1.0000      -0.427656       -11.6371
   3   1.0000      -0.400633       -10.9018
   4   0.0000      -0.077446        -2.1074
   5   0.0000       0.004086         0.1112
   6   0.0000       0.034917         0.9501
   7   0.0000       0.037734         1.0268
   8   0.0000       0.060744         1.6529

MULLIKEN ATOMIC CHARGES AND SPIN POPULATIONS
--------------------------------------------
   0 C :   -0.429286    1.102796
   1 H :    0.139140   -0.038514
   2 H :    0.140532   -0.032556
   3 H :    0.149614   -0.031726
Sum of atomic charges         :    0.0000000

LOEWDIN ATOMIC CHARGES AND SPIN POPULATIONS
-------------------------------------------
   0 C :   -0.142362    0.904424
   1 H :    0.076552    0.021773
   2 H :    0.028876    0.038045
   3 H :    0.036934    0.035757

  Mayer bond orders larger than 0.100000
B(  0-C ,  1-H ) :   0.9781 B(  0-C ,  2-H ) :   0.9789 B(  0-C ,  3-H ) :   0.9781

FINAL SINGLE POINT ENERGY       -39.823634766489

DIPOLE MOMENT
-------------
                                X             Y             Z
Electronic contribution:      0.07871      -0.07694       0.01847
Nuclear contribution   :     -0.10031       0.06483      -0.02079
                        -----------------------------------------
Total Dipole Moment    :     -0.02160      -0.01211      -0.00232
                        -----------------------------------------
Magnitude (a.u.)       :      0.02487
Magnitude (Debye)      :      0.06321

Rotational constants in cm-1:    10.883669     8.660992     4.824042
Rotational constants in MHz : 326284.200537 259650.022787 144621.135412

                             ****ORCA TERMINATED NORMALLY****
TOTAL RUN TIME: 0 days 0 hours 0 minutes 20 seconds 263 msec
