                         Program Version 5.0.3 -  RELEASE  -
|  1> !B3LYP EPR-III Autoaux
|  2> !PAL4
|  3>
|  4> * xyz 0 2
|  5>  C    -83.6294059975   -110.8409652404    -31.2574430822
|  6>  H    -84.2133526617   -111.7770127735    -31.3510865013
|  7>  H    -82.4961104795   -110.9179962407    -31.2071809174
|  8>  H    -84.0558188996   -109.8443624719    -31.1874506572
|  9> *
| 10>
| 11> %EPRNMR
| 12>         GTENSOR   TRUE
| 13>         NUCLEI    = ALL H {AISO, ADIP, AORB}
| 14>         NUCLEI    = ALL C {AISO, ADIP, AORB}
| 15> END
| 16>
| 17>
| 18>                          ****END OF INPUT****

CARTESIAN COORDINATES (ANGSTROEM)
---------------------------------
  C    -83.629406  -110.840965  -31.257443
  H    -84.213353  -111.777013  -31.351087
  H    -82.496110  -110.917996  -31.207181
  H    -84.055819  -109.844362  -31.187451

 Total Charge           Charge          ....    0
 Multiplicity           Mult            ....    2
 Number of Electrons    NEL             ....    9
 Basis Dimension        Dim             ....   73

ORBITAL ENERGIES
----------------
                 SPIN UP ORBITALS
  NO   OCC          E(Eh)            E(eV)
   0   1.0000     -10.193165      -277.3701
   1   1.0000      -0.679662       -18.4945
   2   1.0000      -0.426435       -11.6039
   3   1.0000      -0.406487       -11.0611
   4   1.0000      -0.234861        -6.3909
   5   0.0000      -0.000105        -0.0029
   6   0.0000       0.035728         0.9722
   7   0.0000       0.037570         1.0223
   8   0.0000       0.047340         1.2882
   9   0.0000       0.085519         2.3271

                 SPIN DOWN ORBITALS
  NO   OCC          E(Eh)            E(eV)
   0   1.0000     -10.178556      -276.9726
   1   1.0000      -0.639834       -17.4108
   2   1.0000      -0.417252       -11.3540
   3   1.0000      -0.397384       -10.8134
   4   0.0000      -0.077039        -2.0963
   5   0.0000       0.003346         0.0910
   6   0.0000       0.035409         0.9635
   7   0.0000       0.037247         1.0135
   8   0.0000       0.060683         1.6513

MULLIKEN ATOMIC CHARGES AND SPIN POPULATIONS
--------------------------------------------
   0 C :   -0.426965    1.108857
   1 H :    0.145475   -0.035857
   2 H :    0.135611   -0.038385
   3 H :    0.145880   -0.034616
Sum of atomic charges         :   -0.0000000

LOEWDIN ATOMIC CHARGES AND SPIN POPULATIONS
-------------------------------------------
   0 C :   -0.175305    0.920619
   1 H :    0.058184    0.026771
   2 H :    0.069156    0.022339
   3 H :    0.047966    0.030271

  Mayer bond orders larger than 0.100000
B(  0-C ,  1-H ) :   0.9725 B(  0-C ,  2-H ) :   0.9742 B(  0-C ,  3-H ) :   0.9729

FINAL SINGLE POINT ENERGY       -39.825969478541

DIPOLE MOMENT
-------------
                                X             Y             Z
Electronic contribution:     -0.09181       0.01429      -0.01355
Nuclear contribution   :      0.09214      -0.01235       0.01994
                        -----------------------------------------
Total Dipole Moment    :      0.00033       0.00194       0.00640
                        -----------------------------------------
Magnitude (a.u.)       :      0.00669
Magnitude (Debye)      :      0.01701

Rotational constants in cm-1:     9.331538     8.776252     4.523021
Rotational constants in MHz : 279752.484539 263105.411524 135596.751109

                             ****ORCA TERMINATED NORMALLY****
TOTAL RUN TIME: 0 days 0 hours 0 minutes 22 seconds 527 msec
