                         Program Version 5.0.3 -  RELEASE  -
|  1> !B3LYP EPR-III Autoaux
|  2> !PAL4
|  3>
|  4> * xyz 0 2
|  5>  C    -80.6953343207   -107.2280306869    -30.5459363580
|  6>  H    -80.7035256302   -106.1172554173    -30.4309977334
|  7>  H    -81.6434899631   -107.9295183979    -30.6384021126
|  8>  H    -79.7520457467   -107.7610563496    -30.5392216676
|  9> *
| 10>
| 11> %EPRNMR
| 12>         GTENSOR   TRUE
| 13>         NUCLEI    = ALL H {AISO, ADIP, AORB}
| 14>         NUCLEI    = ALL C {AISO, ADIP, AORB}
| 15> END
| 16>
| 17>
| 18>                          ****END OF INPUT****

CARTESIAN COORDINATES (ANGSTROEM)
---------------------------------
  C    -80.695334  -107.228031  -30.545936
  H    -80.703526  -106.117255  -30.430998
  H    -81.643490  -107.929518  -30.638402
  H    -79.752046  -107.761056  -30.539222

 Total Charge           Charge          ....    0
 Multiplicity           Mult            ....    2
 Number of Electrons    NEL             ....    9
 Basis Dimension        Dim             ....   73

ORBITAL ENERGIES
----------------
                 SPIN UP ORBITALS
  NO   OCC          E(Eh)            E(eV)
   0   1.0000     -10.198233      -277.5080
   1   1.0000      -0.676166       -18.3994
   2   1.0000      -0.422195       -11.4885
   3   1.0000      -0.402889       -10.9632
   4   1.0000      -0.235074        -6.3967
   5   0.0000      -0.001332        -0.0362
   6   0.0000       0.035317         0.9610
   7   0.0000       0.037656         1.0247
   8   0.0000       0.047142         1.2828
   9   0.0000       0.075662         2.0589

                 SPIN DOWN ORBITALS
  NO   OCC          E(Eh)            E(eV)
   0   1.0000     -10.183546      -277.1084
   1   1.0000      -0.636253       -17.3133
   2   1.0000      -0.413241       -11.2449
   3   1.0000      -0.393873       -10.7178
   4   0.0000      -0.077009        -2.0955
   5   0.0000       0.002413         0.0657
   6   0.0000       0.035064         0.9541
   7   0.0000       0.037357         1.0165
   8   0.0000       0.060526         1.6470

MULLIKEN ATOMIC CHARGES AND SPIN POPULATIONS
--------------------------------------------
   0 C :   -0.429041    1.112119
   1 H :    0.148466   -0.036009
   2 H :    0.139290   -0.041244
   3 H :    0.141285   -0.034865
Sum of atomic charges         :    0.0000000

LOEWDIN ATOMIC CHARGES AND SPIN POPULATIONS
-------------------------------------------
   0 C :   -0.188997    0.927856
   1 H :    0.060712    0.025482
   2 H :    0.086170    0.015375
   3 H :    0.042115    0.031287

  Mayer bond orders larger than 0.100000
B(  0-C ,  1-H ) :   0.9695 B(  0-C ,  2-H ) :   0.9703 B(  0-C ,  3-H ) :   0.9715

FINAL SINGLE POINT ENERGY       -39.821004586326

DIPOLE MOMENT
-------------
                                X             Y             Z
Electronic contribution:      0.02822       0.08666      -0.01054
Nuclear contribution   :     -0.00979      -0.09274       0.02188
                        -----------------------------------------
Total Dipole Moment    :      0.01844      -0.00608       0.01134
                        -----------------------------------------
Magnitude (a.u.)       :      0.02248
Magnitude (Debye)      :      0.05715

Rotational constants in cm-1:     9.775472     7.928854     4.378947
Rotational constants in MHz : 293061.265531 237701.056140 131277.537869

                             ****ORCA TERMINATED NORMALLY****
TOTAL RUN TIME: 0 days 0 hours 0 minutes 24 seconds 750 msec
