                         Program Version 5.0.3 -  RELEASE  -
|  1> !B3LYP EPR-III Autoaux
|  2> !PAL4
|  3>
|  4> * xyz 0 2
|  5>  C     -8.4989003600    -24.5576467819    -12.5906829135
|  6>  H     -8.3248811625    -25.6611358034    -12.9393426048
|  7>  H     -7.8469059654    -23.8669578187    -13.0702038082
|  8>  H     -9.0573839118    -24.1480339018    -11.7420894783
|  9> *
| 10>
| 11> %EPRNMR
| 12>         GTENSOR   TRUE
| 13>         NUCLEI    = ALL H {AISO, ADIP, AORB}
| 14>         NUCLEI    = ALL C {AISO, ADIP, AORB}
| 15> END
| 16>
| 17>
| 18>                          ****END OF INPUT****

CARTESIAN COORDINATES (ANGSTROEM)
---------------------------------
  C     -8.498900  -24.557647  -12.590683
  H     -8.324881  -25.661136  -12.939343
  H     -7.846906  -23.866958  -13.070204
  H     -9.057384  -24.148034  -11.742089

 Total Charge           Charge          ....    0
 Multiplicity           Mult            ....    2
 Number of Electrons    NEL             ....    9
 Basis Dimension        Dim             ....   73

ORBITAL ENERGIES
----------------
                 SPIN UP ORBITALS
  NO   OCC          E(Eh)            E(eV)
   0   1.0000     -10.192872      -277.3621
   1   1.0000      -0.681754       -18.5515
   2   1.0000      -0.426884       -11.6161
   3   1.0000      -0.403417       -10.9775
   4   1.0000      -0.236112        -6.4249
   5   0.0000      -0.000665        -0.0181
   6   0.0000       0.034784         0.9465
   7   0.0000       0.038445         1.0461
   8   0.0000       0.047284         1.2867
   9   0.0000       0.074322         2.0224

                 SPIN DOWN ORBITALS
  NO   OCC          E(Eh)            E(eV)
   0   1.0000     -10.178223      -276.9635
   1   1.0000      -0.642347       -17.4791
   2   1.0000      -0.417955       -11.3731
   3   1.0000      -0.393637       -10.7114
   4   0.0000      -0.077750        -2.1157
   5   0.0000       0.002821         0.0768
   6   0.0000       0.034564         0.9405
   7   0.0000       0.038104         1.0369
   8   0.0000       0.060556         1.6478

MULLIKEN ATOMIC CHARGES AND SPIN POPULATIONS
--------------------------------------------
   0 C :   -0.429274    1.107534
   1 H :    0.143559   -0.039705
   2 H :    0.136891   -0.033626
   3 H :    0.148824   -0.034203
Sum of atomic charges         :    0.0000000

LOEWDIN ATOMIC CHARGES AND SPIN POPULATIONS
-------------------------------------------
   0 C :   -0.174938    0.919920
   1 H :    0.085805    0.017016
   2 H :    0.034805    0.034343
   3 H :    0.054329    0.028722

  Mayer bond orders larger than 0.100000
B(  0-C ,  1-H ) :   0.9721 B(  0-C ,  2-H ) :   0.9749 B(  0-C ,  3-H ) :   0.9730

FINAL SINGLE POINT ENERGY       -39.820641363638

DIPOLE MOMENT
-------------
                                X             Y             Z
Electronic contribution:     -0.14043       0.01745       0.00966
Nuclear contribution   :      0.20051      -0.00239       0.01530
                        -----------------------------------------
Total Dipole Moment    :      0.06008       0.01507       0.02496
                        -----------------------------------------
Magnitude (a.u.)       :      0.06678
Magnitude (Debye)      :      0.16975

Rotational constants in cm-1:    10.707990     7.789938     4.538949
Rotational constants in MHz : 321017.477925 233536.451764 136074.257154

                             ****ORCA TERMINATED NORMALLY****
TOTAL RUN TIME: 0 days 0 hours 0 minutes 25 seconds 706 msec
