                         Program Version 5.0.3 -  RELEASE  -
|  1> !B3LYP EPR-III Autoaux
|  2> !PAL4
|  3>
|  4> * xyz 0 2
|  5>  C    -90.8268870161   -119.7844105766    -32.8148031785
|  6>  H    -91.5962584384   -120.4769023111    -32.9008769647
|  7>  H    -89.8385328531   -120.1574388981    -32.7939642807
|  8>  H    -90.9111237099   -118.6487480546    -32.7215226255
|  9> *
| 10>
| 11> %EPRNMR
| 12>         GTENSOR   TRUE
| 13>         NUCLEI    = ALL H {AISO, ADIP, AORB}
| 14>         NUCLEI    = ALL C {AISO, ADIP, AORB}
| 15> END
| 16>
| 17>
| 18>                          ****END OF INPUT****

CARTESIAN COORDINATES (ANGSTROEM)
---------------------------------
  C    -90.826887  -119.784411  -32.814803
  H    -91.596258  -120.476902  -32.900877
  H    -89.838533  -120.157439  -32.793964
  H    -90.911124  -118.648748  -32.721523

 Total Charge           Charge          ....    0
 Multiplicity           Mult            ....    2
 Number of Electrons    NEL             ....    9
 Basis Dimension        Dim             ....   73

ORBITAL ENERGIES
----------------
                 SPIN UP ORBITALS
  NO   OCC          E(Eh)            E(eV)
   0   1.0000     -10.183646      -277.1111
   1   1.0000      -0.689223       -18.7547
   2   1.0000      -0.435002       -11.8370
   3   1.0000      -0.410372       -11.1668
   4   1.0000      -0.234804        -6.3893
   5   0.0000       0.000828         0.0225
   6   0.0000       0.035342         0.9617
   7   0.0000       0.038009         1.0343
   8   0.0000       0.047486         1.2922
   9   0.0000       0.082213         2.2371

                 SPIN DOWN ORBITALS
  NO   OCC          E(Eh)            E(eV)
   0   1.0000     -10.169211      -276.7183
   1   1.0000      -0.649843       -17.6831
   2   1.0000      -0.425490       -11.5782
   3   1.0000      -0.400835       -10.9073
   4   0.0000      -0.077355        -2.1049
   5   0.0000       0.003988         0.1085
   6   0.0000       0.035012         0.9527
   7   0.0000       0.037615         1.0236
   8   0.0000       0.060737         1.6527

MULLIKEN ATOMIC CHARGES AND SPIN POPULATIONS
--------------------------------------------
   0 C :   -0.429114    1.103678
   1 H :    0.149620   -0.031366
   2 H :    0.138457   -0.033541
   3 H :    0.141037   -0.038771
Sum of atomic charges         :   -0.0000000

LOEWDIN ATOMIC CHARGES AND SPIN POPULATIONS
-------------------------------------------
   0 C :   -0.146427    0.906547
   1 H :    0.029961    0.037765
   2 H :    0.037564    0.035028
   3 H :    0.078902    0.020660

  Mayer bond orders larger than 0.100000
B(  0-C ,  1-H ) :   0.9777 B(  0-C ,  2-H ) :   0.9786 B(  0-C ,  3-H ) :   0.9767

FINAL SINGLE POINT ENERGY       -39.823672643202

DIPOLE MOMENT
-------------
                                X             Y             Z
Electronic contribution:     -0.08504      -0.06425      -0.01665
Nuclear contribution   :      0.10099       0.05257       0.02102
                        -----------------------------------------
Total Dipole Moment    :      0.01595      -0.01168       0.00437
                        -----------------------------------------
Magnitude (a.u.)       :      0.02024
Magnitude (Debye)      :      0.05145

Rotational constants in cm-1:    10.701064     8.636178     4.779375
Rotational constants in MHz : 320809.815607 258906.110158 143282.043464

                             ****ORCA TERMINATED NORMALLY****
TOTAL RUN TIME: 0 days 0 hours 0 minutes 33 seconds 198 msec
