                         Program Version 5.0.3 -  RELEASE  -
|  1> !B3LYP EPR-III Autoaux
|  2> !PAL4
|  3>
|  4> * xyz 0 2
|  5>  C      1.6839592615    -12.9533788025     -9.9522143246
|  6>  H      1.6736163525    -12.5586371787     -9.0055448623
|  7>  H      0.8826564320    -13.3443240520    -10.5741634109
|  8>  H      2.6843221625    -13.0483859410    -10.2457650368
|  9> *
| 10>
| 11> %EPRNMR
| 12>         GTENSOR   TRUE
| 13>         NUCLEI    = ALL H {AISO, ADIP, AORB}
| 14>         NUCLEI    = ALL C {AISO, ADIP, AORB}
| 15> END
| 16>
| 17>
| 18>                          ****END OF INPUT****

CARTESIAN COORDINATES (ANGSTROEM)
---------------------------------
  C      1.683959  -12.953379   -9.952214
  H      1.673616  -12.558637   -9.005545
  H      0.882656  -13.344324  -10.574163
  H      2.684322  -13.048386  -10.245765

 Total Charge           Charge          ....    0
 Multiplicity           Mult            ....    2
 Number of Electrons    NEL             ....    9
 Basis Dimension        Dim             ....   73

ORBITAL ENERGIES
----------------
                 SPIN UP ORBITALS
  NO   OCC          E(Eh)            E(eV)
   0   1.0000     -10.175824      -276.8983
   1   1.0000      -0.696797       -18.9608
   2   1.0000      -0.444336       -12.0910
   3   1.0000      -0.410554       -11.1717
   4   1.0000      -0.235062        -6.3964
   5   0.0000       0.001585         0.0431
   6   0.0000       0.034793         0.9468
   7   0.0000       0.038704         1.0532
   8   0.0000       0.047608         1.2955
   9   0.0000       0.086858         2.3635

                 SPIN DOWN ORBITALS
  NO   OCC          E(Eh)            E(eV)
   0   1.0000     -10.161530      -276.5093
   1   1.0000      -0.657909       -17.9026
   2   1.0000      -0.434826       -11.8322
   3   1.0000      -0.400294       -10.8925
   4   0.0000      -0.077808        -2.1173
   5   0.0000       0.004497         0.1224
   6   0.0000       0.034442         0.9372
   7   0.0000       0.038224         1.0401
   8   0.0000       0.060771         1.6537

MULLIKEN ATOMIC CHARGES AND SPIN POPULATIONS
--------------------------------------------
   0 C :   -0.431304    1.099309
   1 H :    0.146105   -0.032203
   2 H :    0.150431   -0.033629
   3 H :    0.134768   -0.033477
Sum of atomic charges         :    0.0000000

LOEWDIN ATOMIC CHARGES AND SPIN POPULATIONS
-------------------------------------------
   0 C :   -0.126493    0.895342
   1 H :    0.027810    0.039578
   2 H :    0.060879    0.028763
   3 H :    0.037804    0.036317

  Mayer bond orders larger than 0.100000
B(  0-C ,  1-H ) :   0.9823 B(  0-C ,  2-H ) :   0.9793 B(  0-C ,  3-H ) :   0.9826

FINAL SINGLE POINT ENERGY       -39.821663305302

DIPOLE MOMENT
-------------
                                X             Y             Z
Electronic contribution:     -0.11638       0.04209      -0.00813
Nuclear contribution   :      0.14144      -0.06836       0.02336
                        -----------------------------------------
Total Dipole Moment    :      0.02505      -0.02627       0.01523
                        -----------------------------------------
Magnitude (a.u.)       :      0.03937
Magnitude (Debye)      :      0.10007

Rotational constants in cm-1:    11.969746     8.652834     5.031846
Rotational constants in MHz : 358843.949958 259405.442615 150850.941922

                             ****ORCA TERMINATED NORMALLY****
TOTAL RUN TIME: 0 days 0 hours 0 minutes 25 seconds 35 msec
