                         Program Version 5.0.3 -  RELEASE  -
|  1> !B3LYP EPR-III Autoaux
|  2> !PAL4
|  3>
|  4> * xyz 0 2
|  5>  C     11.3046331887     -2.0582038811     -7.4824850186
|  6>  H     11.7803111956     -2.7886772132     -8.1011542289
|  7>  H     11.6986164182     -1.8941016171     -6.5174143166
|  8>  H     10.6550361941     -1.2968527239     -7.8797494461
|  9> *
| 10>
| 11> %EPRNMR
| 12>         GTENSOR   TRUE
| 13>         NUCLEI    = ALL H {AISO, ADIP, AORB}
| 14>         NUCLEI    = ALL C {AISO, ADIP, AORB}
| 15> END
| 16>
| 17>
| 18>                          ****END OF INPUT****

CARTESIAN COORDINATES (ANGSTROEM)
---------------------------------
  C     11.304633   -2.058204   -7.482485
  H     11.780311   -2.788677   -8.101154
  H     11.698616   -1.894102   -6.517414
  H     10.655036   -1.296853   -7.879749

 Total Charge           Charge          ....    0
 Multiplicity           Mult            ....    2
 Number of Electrons    NEL             ....    9
 Basis Dimension        Dim             ....   73

ORBITAL ENERGIES
----------------
                 SPIN UP ORBITALS
  NO   OCC          E(Eh)            E(eV)
   0   1.0000     -10.180396      -277.0227
   1   1.0000      -0.691660       -18.8210
   2   1.0000      -0.428434       -11.6583
   3   1.0000      -0.421068       -11.4579
   4   1.0000      -0.237080        -6.4513
   5   0.0000       0.001333         0.0363
   6   0.0000       0.036521         0.9938
   7   0.0000       0.037511         1.0207
   8   0.0000       0.047519         1.2931
   9   0.0000       0.091442         2.4883

                 SPIN DOWN ORBITALS
  NO   OCC          E(Eh)            E(eV)
   0   1.0000     -10.165984      -276.6305
   1   1.0000      -0.652803       -17.7637
   2   1.0000      -0.418811       -11.3964
   3   1.0000      -0.411184       -11.1889
   4   0.0000      -0.078734        -2.1425
   5   0.0000       0.004252         0.1157
   6   0.0000       0.036142         0.9835
   7   0.0000       0.037101         1.0096
   8   0.0000       0.060655         1.6505

MULLIKEN ATOMIC CHARGES AND SPIN POPULATIONS
--------------------------------------------
   0 C :   -0.423069    1.095881
   1 H :    0.142536   -0.031805
   2 H :    0.139482   -0.031641
   3 H :    0.141051   -0.032435
Sum of atomic charges         :   -0.0000000

LOEWDIN ATOMIC CHARGES AND SPIN POPULATIONS
-------------------------------------------
   0 C :   -0.137965    0.901136
   1 H :    0.047336    0.032585
   2 H :    0.039562    0.034958
   3 H :    0.051067    0.031320

  Mayer bond orders larger than 0.100000
B(  0-C ,  1-H ) :   0.9792 B(  0-C ,  2-H ) :   0.9798 B(  0-C ,  3-H ) :   0.9794

FINAL SINGLE POINT ENERGY       -39.827673459519

DIPOLE MOMENT
-------------
                                X             Y             Z
Electronic contribution:     -0.10114      -0.09511       0.02053
Nuclear contribution   :      0.16493       0.14613      -0.03812
                        -----------------------------------------
Total Dipole Moment    :      0.06380       0.05102      -0.01759
                        -----------------------------------------
Magnitude (a.u.)       :      0.08356
Magnitude (Debye)      :      0.21239

Rotational constants in cm-1:    10.203557     9.323053     4.938569
Rotational constants in MHz : 305894.951044 279498.087786 148054.561992

                             ****ORCA TERMINATED NORMALLY****
TOTAL RUN TIME: 0 days 0 hours 0 minutes 25 seconds 525 msec
