                         Program Version 5.0.3 -  RELEASE  -
|  1> !B3LYP EPR-III Autoaux
|  2> !PAL4
|  3>
|  4> * xyz 0 2
|  5>  C      6.0902724870     -7.9770963850     -8.7986897772
|  6>  H      6.9484254202     -7.2308374896     -8.6097840377
|  7>  H      5.2984008340     -8.1091878620     -8.1407159690
|  8>  H      6.0150115135     -8.2826632088     -9.8411552057
|  9> *
| 10>
| 11> %EPRNMR
| 12>         GTENSOR   TRUE
| 13>         NUCLEI    = ALL H {AISO, ADIP, AORB}
| 14>         NUCLEI    = ALL C {AISO, ADIP, AORB}
| 15> END
| 16>
| 17>
| 18>                          ****END OF INPUT****

CARTESIAN COORDINATES (ANGSTROEM)
---------------------------------
  C      6.090272   -7.977096   -8.798690
  H      6.948425   -7.230837   -8.609784
  H      5.298401   -8.109188   -8.140716
  H      6.015012   -8.282663   -9.841155

 Total Charge           Charge          ....    0
 Multiplicity           Mult            ....    2
 Number of Electrons    NEL             ....    9
 Basis Dimension        Dim             ....   73

ORBITAL ENERGIES
----------------
                 SPIN UP ORBITALS
  NO   OCC          E(Eh)            E(eV)
   0   1.0000     -10.188447      -277.2417
   1   1.0000      -0.685802       -18.6616
   2   1.0000      -0.434740       -11.8299
   3   1.0000      -0.403579       -10.9819
   4   1.0000      -0.237689        -6.4678
   5   0.0000       0.000340         0.0092
   6   0.0000       0.035576         0.9681
   7   0.0000       0.038137         1.0378
   8   0.0000       0.047332         1.2880
   9   0.0000       0.082952         2.2572

                 SPIN DOWN ORBITALS
  NO   OCC          E(Eh)            E(eV)
   0   1.0000     -10.173865      -276.8449
   1   1.0000      -0.646658       -17.5965
   2   1.0000      -0.425022       -11.5654
   3   1.0000      -0.394253       -10.7282
   4   0.0000      -0.078840        -2.1454
   5   0.0000       0.003503         0.0953
   6   0.0000       0.035259         0.9594
   7   0.0000       0.037823         1.0292
   8   0.0000       0.060496         1.6462

MULLIKEN ATOMIC CHARGES AND SPIN POPULATIONS
--------------------------------------------
   0 C :   -0.423086    1.100246
   1 H :    0.134825   -0.037442
   2 H :    0.149722   -0.029166
   3 H :    0.138539   -0.033638
Sum of atomic charges         :   -0.0000000

LOEWDIN ATOMIC CHARGES AND SPIN POPULATIONS
-------------------------------------------
   0 C :   -0.157398    0.911956
   1 H :    0.079127    0.019970
   2 H :    0.026672    0.038261
   3 H :    0.051599    0.029813

  Mayer bond orders larger than 0.100000
B(  0-C ,  1-H ) :   0.9764 B(  0-C ,  2-H ) :   0.9756 B(  0-C ,  3-H ) :   0.9767

FINAL SINGLE POINT ENERGY       -39.823458256178

DIPOLE MOMENT
-------------
                                X             Y             Z
Electronic contribution:     -0.04118      -0.16826       0.11253
Nuclear contribution   :     -0.00673       0.23129      -0.14659
                        -----------------------------------------
Total Dipole Moment    :     -0.04791       0.06303      -0.03406
                        -----------------------------------------
Magnitude (a.u.)       :      0.08619
Magnitude (Debye)      :      0.21907

Rotational constants in cm-1:     9.744243     8.836191     4.700882
Rotational constants in MHz : 292125.050660 264902.339415 140928.885083

                             ****ORCA TERMINATED NORMALLY****
TOTAL RUN TIME: 0 days 0 hours 0 minutes 31 seconds 78 msec
