                         Program Version 5.0.3 -  RELEASE  -
|  1> !B3LYP EPR-III Autoaux
|  2> !PAL4
|  3>
|  4> * xyz 0 2
|  5>  C      4.7549904812     -9.4502709664     -9.1690997065
|  6>  H      5.2221206241     -9.8091234076    -10.0426194545
|  7>  H      5.4613475110     -9.1544304006     -8.3814606483
|  8>  H      3.7068539687     -9.5859484078     -8.9372752010
|  9> *
| 10>
| 11> %EPRNMR
| 12>         GTENSOR   TRUE
| 13>         NUCLEI    = ALL H {AISO, ADIP, AORB}
| 14>         NUCLEI    = ALL C {AISO, ADIP, AORB}
| 15> END
| 16>
| 17>
| 18>                          ****END OF INPUT****

CARTESIAN COORDINATES (ANGSTROEM)
---------------------------------
  C      4.754990   -9.450271   -9.169100
  H      5.222121   -9.809123  -10.042619
  H      5.461348   -9.154430   -8.381461
  H      3.706854   -9.585948   -8.937275

 Total Charge           Charge          ....    0
 Multiplicity           Mult            ....    2
 Number of Electrons    NEL             ....    9
 Basis Dimension        Dim             ....   73

ORBITAL ENERGIES
----------------
                 SPIN UP ORBITALS
  NO   OCC          E(Eh)            E(eV)
   0   1.0000     -10.183755      -277.1141
   1   1.0000      -0.688724       -18.7411
   2   1.0000      -0.432742       -11.7755
   3   1.0000      -0.412367       -11.2211
   4   1.0000      -0.236468        -6.4346
   5   0.0000       0.001007         0.0274
   6   0.0000       0.035886         0.9765
   7   0.0000       0.037912         1.0316
   8   0.0000       0.047465         1.2916
   9   0.0000       0.089826         2.4443

                 SPIN DOWN ORBITALS
  NO   OCC          E(Eh)            E(eV)
   0   1.0000     -10.169296      -276.7206
   1   1.0000      -0.649629       -17.6773
   2   1.0000      -0.423178       -11.5153
   3   1.0000      -0.402714       -10.9584
   4   0.0000      -0.078300        -2.1307
   5   0.0000       0.004047         0.1101
   6   0.0000       0.035530         0.9668
   7   0.0000       0.037516         1.0209
   8   0.0000       0.060648         1.6503

MULLIKEN ATOMIC CHARGES AND SPIN POPULATIONS
--------------------------------------------
   0 C :   -0.424619    1.099330
   1 H :    0.143414   -0.031868
   2 H :    0.135541   -0.034859
   3 H :    0.145664   -0.032602
Sum of atomic charges         :    0.0000000

LOEWDIN ATOMIC CHARGES AND SPIN POPULATIONS
-------------------------------------------
   0 C :   -0.147620    0.906069
   1 H :    0.036999    0.035345
   2 H :    0.058353    0.028081
   3 H :    0.052268    0.030505

  Mayer bond orders larger than 0.100000
B(  0-C ,  1-H ) :   0.9781 B(  0-C ,  2-H ) :   0.9789 B(  0-C ,  3-H ) :   0.9771

FINAL SINGLE POINT ENERGY       -39.827089861937

DIPOLE MOMENT
-------------
                                X             Y             Z
Electronic contribution:     -0.07799       0.08361      -0.08735
Nuclear contribution   :      0.09395      -0.14891       0.10938
                        -----------------------------------------
Total Dipole Moment    :      0.01596      -0.06530       0.02203
                        -----------------------------------------
Magnitude (a.u.)       :      0.07074
Magnitude (Debye)      :      0.17981

Rotational constants in cm-1:    10.191625     9.000026     4.825390
Rotational constants in MHz : 305537.240656 269813.992357 144661.551920

                             ****ORCA TERMINATED NORMALLY****
TOTAL RUN TIME: 0 days 0 hours 0 minutes 21 seconds 613 msec
