                         Program Version 5.0.3 -  RELEASE  -
|  1> !B3LYP EPR-III Autoaux
|  2> !PAL4
|  3>
|  4> * xyz 0 2
|  5>  C      8.4059107392     -5.3517843104     -8.2148103724
|  6>  H      9.0276540575     -6.1334644610     -7.9632228382
|  7>  H      8.6023062526     -4.6665062970     -9.0744546771
|  8>  H      7.6207243781     -5.0581959701     -7.5305289015
|  9> *
| 10>
| 11> %EPRNMR
| 12>         GTENSOR   TRUE
| 13>         NUCLEI    = ALL H {AISO, ADIP, AORB}
| 14>         NUCLEI    = ALL C {AISO, ADIP, AORB}
| 15> END
| 16>
| 17>
| 18>                          ****END OF INPUT****

CARTESIAN COORDINATES (ANGSTROEM)
---------------------------------
  C      8.405911   -5.351784   -8.214810
  H      9.027654   -6.133464   -7.963223
  H      8.602306   -4.666506   -9.074455
  H      7.620724   -5.058196   -7.530529

 Total Charge           Charge          ....    0
 Multiplicity           Mult            ....    2
 Number of Electrons    NEL             ....    9
 Basis Dimension        Dim             ....   73

ORBITAL ENERGIES
----------------
                 SPIN UP ORBITALS
  NO   OCC          E(Eh)            E(eV)
   0   1.0000     -10.183294      -277.1015
   1   1.0000      -0.689530       -18.7631
   2   1.0000      -0.433468       -11.7953
   3   1.0000      -0.413587       -11.2543
   4   1.0000      -0.235700        -6.4137
   5   0.0000       0.000987         0.0269
   6   0.0000       0.036010         0.9799
   7   0.0000       0.037567         1.0223
   8   0.0000       0.047383         1.2894
   9   0.0000       0.087618         2.3842

                 SPIN DOWN ORBITALS
  NO   OCC          E(Eh)            E(eV)
   0   1.0000     -10.168901      -276.7099
   1   1.0000      -0.650325       -17.6962
   2   1.0000      -0.423750       -11.5308
   3   1.0000      -0.404224       -10.9995
   4   0.0000      -0.077994        -2.1223
   5   0.0000       0.004056         0.1104
   6   0.0000       0.035614         0.9691
   7   0.0000       0.037159         1.0111
   8   0.0000       0.060588         1.6487

MULLIKEN ATOMIC CHARGES AND SPIN POPULATIONS
--------------------------------------------
   0 C :   -0.426598    1.100141
   1 H :    0.148330   -0.030232
   2 H :    0.139465   -0.035897
   3 H :    0.138803   -0.034011
Sum of atomic charges         :    0.0000000

LOEWDIN ATOMIC CHARGES AND SPIN POPULATIONS
-------------------------------------------
   0 C :   -0.144231    0.904957
   1 H :    0.024988    0.039364
   2 H :    0.067843    0.025012
   3 H :    0.051400    0.030667

  Mayer bond orders larger than 0.100000
B(  0-C ,  1-H ) :   0.9778 B(  0-C ,  2-H ) :   0.9778 B(  0-C ,  3-H ) :   0.9786

FINAL SINGLE POINT ENERGY       -39.825946863628

DIPOLE MOMENT
-------------
                                X             Y             Z
Electronic contribution:      0.00246      -0.12081      -0.02486
Nuclear contribution   :      0.02470       0.14779       0.05713
                        -----------------------------------------
Total Dipole Moment    :      0.02716       0.02697       0.03227
                        -----------------------------------------
Magnitude (a.u.)       :      0.05007
Magnitude (Debye)      :      0.12726

Rotational constants in cm-1:    10.015963     9.217095     4.822738
Rotational constants in MHz : 300271.010171 276321.546877 144582.051626

                             ****ORCA TERMINATED NORMALLY****
TOTAL RUN TIME: 0 days 0 hours 0 minutes 22 seconds 47 msec
