                         Program Version 5.0.3 -  RELEASE  -
|  1> !B3LYP EPR-III Autoaux
|  2> !PAL4
|  3>
|  4> * xyz 0 2
|  5>  C     -5.5687300433    -21.2596158326    -11.8168348636
|  6>  H     -4.7877828737    -21.9397368555    -12.0039396428
|  7>  H     -5.6569385686    -20.4055712577    -11.1532465286
|  8>  H     -6.3269092779    -21.3992651467    -12.5065101757
|  9> *
| 10>
| 11> %EPRNMR
| 12>         GTENSOR   TRUE
| 13>         NUCLEI    = ALL H {AISO, ADIP, AORB}
| 14>         NUCLEI    = ALL C {AISO, ADIP, AORB}
| 15> END
| 16>
| 17>
| 18>                          ****END OF INPUT****

CARTESIAN COORDINATES (ANGSTROEM)
---------------------------------
  C     -5.568730  -21.259616  -11.816835
  H     -4.787783  -21.939737  -12.003940
  H     -5.656939  -20.405571  -11.153247
  H     -6.326909  -21.399265  -12.506510

 Total Charge           Charge          ....    0
 Multiplicity           Mult            ....    2
 Number of Electrons    NEL             ....    9
 Basis Dimension        Dim             ....   73

ORBITAL ENERGIES
----------------
                 SPIN UP ORBITALS
  NO   OCC          E(Eh)            E(eV)
   0   1.0000     -10.177073      -276.9322
   1   1.0000      -0.695398       -18.9227
   2   1.0000      -0.441884       -12.0243
   3   1.0000      -0.411146       -11.1879
   4   1.0000      -0.235191        -6.3999
   5   0.0000       0.001449         0.0394
   6   0.0000       0.034803         0.9470
   7   0.0000       0.038713         1.0534
   8   0.0000       0.047589         1.2950
   9   0.0000       0.084663         2.3038

                 SPIN DOWN ORBITALS
  NO   OCC          E(Eh)            E(eV)
   0   1.0000     -10.162752      -276.5425
   1   1.0000      -0.656475       -17.8636
   2   1.0000      -0.432544       -11.7701
   3   1.0000      -0.400815       -10.9067
   4   0.0000      -0.077837        -2.1180
   5   0.0000       0.004389         0.1194
   6   0.0000       0.034446         0.9373
   7   0.0000       0.038245         1.0407
   8   0.0000       0.060762         1.6534

MULLIKEN ATOMIC CHARGES AND SPIN POPULATIONS
--------------------------------------------
   0 C :   -0.431041    1.099677
   1 H :    0.146465   -0.033228
   2 H :    0.149280   -0.033881
   3 H :    0.135296   -0.032568
Sum of atomic charges         :    0.0000000

LOEWDIN ATOMIC CHARGES AND SPIN POPULATIONS
-------------------------------------------
   0 C :   -0.130839    0.897243
   1 H :    0.042061    0.034914
   2 H :    0.059079    0.029240
   3 H :    0.029699    0.038602

  Mayer bond orders larger than 0.100000
B(  0-C ,  1-H ) :   0.9815 B(  0-C ,  2-H ) :   0.9795 B(  0-C ,  3-H ) :   0.9817

FINAL SINGLE POINT ENERGY       -39.822729687241

DIPOLE MOMENT
-------------
                                X             Y             Z
Electronic contribution:      0.04553      -0.00961       0.11343
Nuclear contribution   :     -0.04905       0.02569      -0.15978
                        -----------------------------------------
Total Dipole Moment    :     -0.00351       0.01608      -0.04635
                        -----------------------------------------
Magnitude (a.u.)       :      0.04918
Magnitude (Debye)      :      0.12502

Rotational constants in cm-1:    11.829730     8.609031     4.996980
Rotational constants in MHz : 354646.382145 258092.248513 149805.686260

                             ****ORCA TERMINATED NORMALLY****
TOTAL RUN TIME: 0 days 0 hours 0 minutes 21 seconds 507 msec
