                         Program Version 5.0.3 -  RELEASE  -
|  1> !B3LYP EPR-III Autoaux
|  2> !PAL4
|  3>
|  4> * xyz 0 2
|  5>  C    -28.9701233372    -47.6542341113    -17.8636699356
|  6>  H    -27.9405940996    -47.9769910975    -17.7390175581
|  7>  H    -29.4448212283    -46.6436683291    -17.7520941825
|  8>  H    -29.6886107167    -48.4292044902    -18.1229174808
|  9> *
| 10>
| 11> %EPRNMR
| 12>         GTENSOR   TRUE
| 13>         NUCLEI    = ALL H {AISO, ADIP, AORB}
| 14>         NUCLEI    = ALL C {AISO, ADIP, AORB}
| 15> END
| 16>
| 17>
| 18>                          ****END OF INPUT****

CARTESIAN COORDINATES (ANGSTROEM)
---------------------------------
  C    -28.970123  -47.654234  -17.863670
  H    -27.940594  -47.976991  -17.739018
  H    -29.444821  -46.643668  -17.752094
  H    -29.688611  -48.429204  -18.122917

 Total Charge           Charge          ....    0
 Multiplicity           Mult            ....    2
 Number of Electrons    NEL             ....    9
 Basis Dimension        Dim             ....   73

ORBITAL ENERGIES
----------------
                 SPIN UP ORBITALS
  NO   OCC          E(Eh)            E(eV)
   0   1.0000     -10.189772      -277.2778
   1   1.0000      -0.683162       -18.5898
   2   1.0000      -0.432504       -11.7690
   3   1.0000      -0.404011       -10.9937
   4   1.0000      -0.234819        -6.3898
   5   0.0000       0.000203         0.0055
   6   0.0000       0.034814         0.9473
   7   0.0000       0.038426         1.0456
   8   0.0000       0.047391         1.2896
   9   0.0000       0.079925         2.1749

                 SPIN DOWN ORBITALS
  NO   OCC          E(Eh)            E(eV)
   0   1.0000     -10.175228      -276.8820
   1   1.0000      -0.643577       -17.5126
   2   1.0000      -0.423514       -11.5244
   3   1.0000      -0.394372       -10.7314
   4   0.0000      -0.077171        -2.0999
   5   0.0000       0.003542         0.0964
   6   0.0000       0.034513         0.9391
   7   0.0000       0.038038         1.0351
   8   0.0000       0.060699         1.6517

MULLIKEN ATOMIC CHARGES AND SPIN POPULATIONS
--------------------------------------------
   0 C :   -0.430186    1.107741
   1 H :    0.150038   -0.034478
   2 H :    0.145760   -0.037589
   3 H :    0.134388   -0.035674
Sum of atomic charges         :   -0.0000000

LOEWDIN ATOMIC CHARGES AND SPIN POPULATIONS
-------------------------------------------
   0 C :   -0.167489    0.915872
   1 H :    0.051348    0.029880
   2 H :    0.067555    0.024063
   3 H :    0.048585    0.030185

  Mayer bond orders larger than 0.100000
B(  0-C ,  1-H ) :   0.9741 B(  0-C ,  2-H ) :   0.9742 B(  0-C ,  3-H ) :   0.9767

FINAL SINGLE POINT ENERGY       -39.825065008412

DIPOLE MOMENT
-------------
                                X             Y             Z
Electronic contribution:      0.10829       0.04943       0.01779
Nuclear contribution   :     -0.12266      -0.06533      -0.01725
                        -----------------------------------------
Total Dipole Moment    :     -0.01436      -0.01590       0.00053
                        -----------------------------------------
Magnitude (a.u.)       :      0.02143
Magnitude (Debye)      :      0.05448

Rotational constants in cm-1:    10.460816     8.272007     4.619554
Rotational constants in MHz : 313607.383462 247988.532504 138490.739131

                             ****ORCA TERMINATED NORMALLY****
TOTAL RUN TIME: 0 days 0 hours 0 minutes 23 seconds 287 msec
