                         Program Version 5.0.3 -  RELEASE  -
|  1> !B3LYP EPR-III Autoaux
|  2> !PAL4
|  3>
|  4> * xyz 0 2
|  5>  C    -41.1065345443    -61.2809982240    -20.9315864655
|  6>  H    -40.8942776841    -62.4221220532    -20.9000927916
|  7>  H    -40.4133026444    -60.5032348513    -20.9538593515
|  8>  H    -42.1380607277    -60.8335083267    -20.9252814576
|  9> *
| 10>
| 11> %EPRNMR
| 12>         GTENSOR   TRUE
| 13>         NUCLEI    = ALL H {AISO, ADIP, AORB}
| 14>         NUCLEI    = ALL C {AISO, ADIP, AORB}
| 15> END
| 16>
| 17>
| 18>                          ****END OF INPUT****

CARTESIAN COORDINATES (ANGSTROEM)
---------------------------------
  C    -41.106535  -61.280998  -20.931586
  H    -40.894278  -62.422122  -20.900093
  H    -40.413303  -60.503235  -20.953859
  H    -42.138061  -60.833508  -20.925281

 Total Charge           Charge          ....    0
 Multiplicity           Mult            ....    2
 Number of Electrons    NEL             ....    9
 Basis Dimension        Dim             ....   73

ORBITAL ENERGIES
----------------
                 SPIN UP ORBITALS
  NO   OCC          E(Eh)            E(eV)
   0   1.0000     -10.192455      -277.3508
   1   1.0000      -0.682293       -18.5661
   2   1.0000      -0.428791       -11.6680
   3   1.0000      -0.402262       -10.9461
   4   1.0000      -0.234938        -6.3930
   5   0.0000      -0.000564        -0.0153
   6   0.0000       0.034692         0.9440
   7   0.0000       0.038299         1.0422
   8   0.0000       0.047325         1.2878
   9   0.0000       0.077235         2.1017

                 SPIN DOWN ORBITALS
  NO   OCC          E(Eh)            E(eV)
   0   1.0000     -10.177834      -276.9529
   1   1.0000      -0.642730       -17.4896
   2   1.0000      -0.419696       -11.4205
   3   1.0000      -0.392749       -10.6872
   4   0.0000      -0.077075        -2.0973
   5   0.0000       0.002969         0.0808
   6   0.0000       0.034516         0.9392
   7   0.0000       0.037918         1.0318
   8   0.0000       0.060661         1.6507

MULLIKEN ATOMIC CHARGES AND SPIN POPULATIONS
--------------------------------------------
   0 C :   -0.431522    1.110528
   1 H :    0.150633   -0.039057
   2 H :    0.146456   -0.033137
   3 H :    0.134433   -0.038335
Sum of atomic charges         :    0.0000000

LOEWDIN ATOMIC CHARGES AND SPIN POPULATIONS
-------------------------------------------
   0 C :   -0.173475    0.919924
   1 H :    0.083807    0.017862
   2 H :    0.024886    0.037905
   3 H :    0.064782    0.024309

  Mayer bond orders larger than 0.100000
B(  0-C ,  1-H ) :   0.9697 B(  0-C ,  2-H ) :   0.9741 B(  0-C ,  3-H ) :   0.9758

FINAL SINGLE POINT ENERGY       -39.819402259038

DIPOLE MOMENT
-------------
                                X             Y             Z
Electronic contribution:      0.09848      -0.04642      -0.00762
Nuclear contribution   :     -0.09446       0.06305       0.01164
                        -----------------------------------------
Total Dipole Moment    :      0.00402       0.01663       0.00402
                        -----------------------------------------
Magnitude (a.u.)       :      0.01758
Magnitude (Debye)      :      0.04468

Rotational constants in cm-1:    10.847637     7.759291     4.523752
Rotational constants in MHz : 325203.976789 232617.692506 135618.665011

                             ****ORCA TERMINATED NORMALLY****
TOTAL RUN TIME: 0 days 0 hours 0 minutes 19 seconds 242 msec
