                         Program Version 5.0.3 -  RELEASE  -
|  1> !B3LYP EPR-III Autoaux
|  2> !PAL4
|  3>
|  4> * xyz 0 2
|  5>  C    -13.6746442146    -30.4252769038    -13.9164394108
|  6>  H    -12.9255987818    -29.7273269295    -14.4513708824
|  7>  H    -14.6990737613    -30.2389290012    -13.9312565279
|  8>  H    -13.1874086233    -31.2766820046    -13.5137305365
|  9> *
| 10>
| 11> %EPRNMR
| 12>         GTENSOR   TRUE
| 13>         NUCLEI    = ALL H {AISO, ADIP, AORB}
| 14>         NUCLEI    = ALL C {AISO, ADIP, AORB}
| 15> END
| 16>
| 17>
| 18>                          ****END OF INPUT****

CARTESIAN COORDINATES (ANGSTROEM)
---------------------------------
  C    -13.674644  -30.425277  -13.916439
  H    -12.925599  -29.727327  -14.451371
  H    -14.699074  -30.238929  -13.931257
  H    -13.187409  -31.276682  -13.513731

 Total Charge           Charge          ....    0
 Multiplicity           Mult            ....    2
 Number of Electrons    NEL             ....    9
 Basis Dimension        Dim             ....   73

ORBITAL ENERGIES
----------------
                 SPIN UP ORBITALS
  NO   OCC          E(Eh)            E(eV)
   0   1.0000     -10.185914      -277.1728
   1   1.0000      -0.687493       -18.7076
   2   1.0000      -0.442733       -12.0474
   3   1.0000      -0.400721       -10.9042
   4   1.0000      -0.235329        -6.4036
   5   0.0000       0.000660         0.0180
   6   0.0000       0.034896         0.9496
   7   0.0000       0.038397         1.0448
   8   0.0000       0.047420         1.2904
   9   0.0000       0.083520         2.2727

                 SPIN DOWN ORBITALS
  NO   OCC          E(Eh)            E(eV)
   0   1.0000     -10.171431      -276.7787
   1   1.0000      -0.647969       -17.6321
   2   1.0000      -0.433138       -11.7863
   3   1.0000      -0.391472       -10.6525
   4   0.0000      -0.077611        -2.1119
   5   0.0000       0.003850         0.1048
   6   0.0000       0.034545         0.9400
   7   0.0000       0.038051         1.0354
   8   0.0000       0.060664         1.6508

MULLIKEN ATOMIC CHARGES AND SPIN POPULATIONS
--------------------------------------------
   0 C :   -0.427776    1.104282
   1 H :    0.130655   -0.039838
   2 H :    0.152240   -0.030791
   3 H :    0.144881   -0.033653
Sum of atomic charges         :    0.0000000

LOEWDIN ATOMIC CHARGES AND SPIN POPULATIONS
-------------------------------------------
   0 C :   -0.150315    0.909207
   1 H :    0.080291    0.019296
   2 H :    0.030512    0.037321
   3 H :    0.039512    0.034176

  Mayer bond orders larger than 0.100000
B(  0-C ,  1-H ) :   0.9783 B(  0-C ,  2-H ) :   0.9764 B(  0-C ,  3-H ) :   0.9771

FINAL SINGLE POINT ENERGY       -39.823028421574

DIPOLE MOMENT
-------------
                                X             Y             Z
Electronic contribution:     -0.15759      -0.04628       0.09405
Nuclear contribution   :      0.15878       0.02465      -0.11020
                        -----------------------------------------
Total Dipole Moment    :      0.00119      -0.02162      -0.01615
                        -----------------------------------------
Magnitude (a.u.)       :      0.02702
Magnitude (Debye)      :      0.06867

Rotational constants in cm-1:    10.022282     8.933580     4.728676
Rotational constants in MHz : 300460.453806 267821.999107 141762.155019

                             ****ORCA TERMINATED NORMALLY****
TOTAL RUN TIME: 0 days 0 hours 0 minutes 23 seconds 251 msec
