                         Program Version 5.0.3 -  RELEASE  -
|  1> !B3LYP EPR-III Autoaux
|  2> !PAL4
|  3>
|  4> * xyz 0 2
|  5>  C     -9.5177625229    -25.7166546266    -12.8515305725
|  6>  H     -8.6083240130    -25.3157562160    -12.3555390994
|  7>  H    -10.0574127118    -25.0263289639    -13.3875780864
|  8>  H     -9.6565480488    -26.7629617743    -12.8738054572
|  9> *
| 10>
| 11> %EPRNMR
| 12>         GTENSOR   TRUE
| 13>         NUCLEI    = ALL H {AISO, ADIP, AORB}
| 14>         NUCLEI    = ALL C {AISO, ADIP, AORB}
| 15> END
| 16>
| 17>
| 18>                          ****END OF INPUT****

CARTESIAN COORDINATES (ANGSTROEM)
---------------------------------
  C     -9.517763  -25.716655  -12.851531
  H     -8.608324  -25.315756  -12.355539
  H    -10.057413  -25.026329  -13.387578
  H     -9.656548  -26.762962  -12.873805

 Total Charge           Charge          ....    0
 Multiplicity           Mult            ....    2
 Number of Electrons    NEL             ....    9
 Basis Dimension        Dim             ....   73

ORBITAL ENERGIES
----------------
                 SPIN UP ORBITALS
  NO   OCC          E(Eh)            E(eV)
   0   1.0000     -10.179497      -276.9982
   1   1.0000      -0.692632       -18.8475
   2   1.0000      -0.440662       -11.9910
   3   1.0000      -0.411355       -11.1935
   4   1.0000      -0.235691        -6.4135
   5   0.0000       0.001395         0.0380
   6   0.0000       0.035669         0.9706
   7   0.0000       0.038015         1.0344
   8   0.0000       0.047540         1.2936
   9   0.0000       0.089547         2.4367

                 SPIN DOWN ORBITALS
  NO   OCC          E(Eh)            E(eV)
   0   1.0000     -10.165129      -276.6072
   1   1.0000      -0.653483       -17.7822
   2   1.0000      -0.430856       -11.7242
   3   1.0000      -0.401801       -10.9336
   4   0.0000      -0.078023        -2.1231
   5   0.0000       0.004360         0.1186
   6   0.0000       0.035274         0.9599
   7   0.0000       0.037609         1.0234
   8   0.0000       0.060717         1.6522

MULLIKEN ATOMIC CHARGES AND SPIN POPULATIONS
--------------------------------------------
   0 C :   -0.426404    1.098692
   1 H :    0.132729   -0.036208
   2 H :    0.147091   -0.030654
   3 H :    0.146584   -0.031829
Sum of atomic charges         :   -0.0000000

LOEWDIN ATOMIC CHARGES AND SPIN POPULATIONS
-------------------------------------------
   0 C :   -0.133515    0.899940
   1 H :    0.066113    0.025938
   2 H :    0.025707    0.039578
   3 H :    0.041695    0.034545

  Mayer bond orders larger than 0.100000
B(  0-C ,  1-H ) :   0.9808 B(  0-C ,  2-H ) :   0.9796 B(  0-C ,  3-H ) :   0.9793

FINAL SINGLE POINT ENERGY       -39.825161878550

DIPOLE MOMENT
-------------
                                X             Y             Z
Electronic contribution:     -0.14600      -0.03498       0.00413
Nuclear contribution   :      0.17313       0.03366      -0.04672
                        -----------------------------------------
Total Dipole Moment    :      0.02713      -0.00131      -0.04258
                        -----------------------------------------
Magnitude (a.u.)       :      0.05051
Magnitude (Debye)      :      0.12838

Rotational constants in cm-1:    10.214258     9.446663     4.931422
Rotational constants in MHz : 306215.757391 283203.837291 147840.307810

                             ****ORCA TERMINATED NORMALLY****
TOTAL RUN TIME: 0 days 0 hours 0 minutes 18 seconds 467 msec
