                         Program Version 5.0.3 -  RELEASE  -
|  1> !B3LYP EPR-III Autoaux
|  2> !PAL4
|  3>
|  4> * xyz 0 2
|  5>  C    -14.0300671225    -30.8429186751    -14.0307922275
|  6>  H    -13.7886740547    -29.7496959099    -14.2566865817
|  7>  H    -14.9739310104    -31.3397651288    -14.2452084910
|  8>  H    -13.3672293259    -31.4529677186    -13.4676511455
|  9> *
| 10>
| 11> %EPRNMR
| 12>         GTENSOR   TRUE
| 13>         NUCLEI    = ALL H {AISO, ADIP, AORB}
| 14>         NUCLEI    = ALL C {AISO, ADIP, AORB}
| 15> END
| 16>
| 17>
| 18>                          ****END OF INPUT****

CARTESIAN COORDINATES (ANGSTROEM)
---------------------------------
  C    -14.030067  -30.842919  -14.030792
  H    -13.788674  -29.749696  -14.256687
  H    -14.973931  -31.339765  -14.245208
  H    -13.367229  -31.452968  -13.467651

 Total Charge           Charge          ....    0
 Multiplicity           Mult            ....    2
 Number of Electrons    NEL             ....    9
 Basis Dimension        Dim             ....   73

ORBITAL ENERGIES
----------------
                 SPIN UP ORBITALS
  NO   OCC          E(Eh)            E(eV)
   0   1.0000     -10.189177      -277.2616
   1   1.0000      -0.684001       -18.6126
   2   1.0000      -0.423442       -11.5225
   3   1.0000      -0.413445       -11.2504
   4   1.0000      -0.235094        -6.3972
   5   0.0000       0.000187         0.0051
   6   0.0000       0.035635         0.9697
   7   0.0000       0.037734         1.0268
   8   0.0000       0.047400         1.2898
   9   0.0000       0.081451         2.2164

                 SPIN DOWN ORBITALS
  NO   OCC          E(Eh)            E(eV)
   0   1.0000     -10.174634      -276.8659
   1   1.0000      -0.644526       -17.5384
   2   1.0000      -0.414481       -11.2786
   3   1.0000      -0.403658       -10.9841
   4   0.0000      -0.077317        -2.1039
   5   0.0000       0.003518         0.0957
   6   0.0000       0.035370         0.9625
   7   0.0000       0.037337         1.0160
   8   0.0000       0.060694         1.6516

MULLIKEN ATOMIC CHARGES AND SPIN POPULATIONS
--------------------------------------------
   0 C :   -0.428054    1.106273
   1 H :    0.145669   -0.037603
   2 H :    0.141654   -0.035057
   3 H :    0.140732   -0.033613
Sum of atomic charges         :    0.0000000

LOEWDIN ATOMIC CHARGES AND SPIN POPULATIONS
-------------------------------------------
   0 C :   -0.164499    0.914820
   1 H :    0.076370    0.020976
   2 H :    0.050919    0.029891
   3 H :    0.037210    0.034313

  Mayer bond orders larger than 0.100000
B(  0-C ,  1-H ) :   0.9730 B(  0-C ,  2-H ) :   0.9758 B(  0-C ,  3-H ) :   0.9760

FINAL SINGLE POINT ENERGY       -39.824739648542

DIPOLE MOMENT
-------------
                                X             Y             Z
Electronic contribution:      0.02070       0.00576      -0.05662
Nuclear contribution   :     -0.02970      -0.01025       0.09206
                        -----------------------------------------
Total Dipole Moment    :     -0.00900      -0.00449       0.03543
                        -----------------------------------------
Magnitude (a.u.)       :      0.03683
Magnitude (Debye)      :      0.09363

Rotational constants in cm-1:    10.499971     8.252128     4.630145
Rotational constants in MHz : 314781.200241 247392.560321 138808.259525

                             ****ORCA TERMINATED NORMALLY****
TOTAL RUN TIME: 0 days 0 hours 0 minutes 23 seconds 403 msec
