                         Program Version 5.0.3 -  RELEASE  -
|  1> !B3LYP EPR-III Autoaux
|  2> !PAL4
|  3>
|  4> * xyz 0 2
|  5>  C    -53.1194326254    -74.6583455291    -23.9348265466
|  6>  H    -54.2389013734    -74.5699639593    -23.9054338025
|  7>  H    -52.5981266812    -75.6724587579    -24.1233879404
|  8>  H    -52.3849653562    -73.8377482630    -23.8674798862
|  9> *
| 10>
| 11> %EPRNMR
| 12>         GTENSOR   TRUE
| 13>         NUCLEI    = ALL H {AISO, ADIP, AORB}
| 14>         NUCLEI    = ALL C {AISO, ADIP, AORB}
| 15> END
| 16>
| 17>
| 18>                          ****END OF INPUT****

CARTESIAN COORDINATES (ANGSTROEM)
---------------------------------
  C    -53.119433  -74.658346  -23.934827
  H    -54.238901  -74.569964  -23.905434
  H    -52.598127  -75.672459  -24.123388
  H    -52.384965  -73.837748  -23.867480

 Total Charge           Charge          ....    0
 Multiplicity           Mult            ....    2
 Number of Electrons    NEL             ....    9
 Basis Dimension        Dim             ....   73

ORBITAL ENERGIES
----------------
                 SPIN UP ORBITALS
  NO   OCC          E(Eh)            E(eV)
   0   1.0000     -10.198272      -277.5091
   1   1.0000      -0.675537       -18.3823
   2   1.0000      -0.427134       -11.6229
   3   1.0000      -0.397960       -10.8290
   4   1.0000      -0.235162        -6.3991
   5   0.0000      -0.001021        -0.0278
   6   0.0000       0.034935         0.9506
   7   0.0000       0.038141         1.0379
   8   0.0000       0.047230         1.2852
   9   0.0000       0.081340         2.2134

                 SPIN DOWN ORBITALS
  NO   OCC          E(Eh)            E(eV)
   0   1.0000     -10.183547      -277.1084
   1   1.0000      -0.635543       -17.2940
   2   1.0000      -0.418241       -11.3809
   3   1.0000      -0.388871       -10.5817
   4   0.0000      -0.077011        -2.0956
   5   0.0000       0.002664         0.0725
   6   0.0000       0.034685         0.9438
   7   0.0000       0.037843         1.0298
   8   0.0000       0.060613         1.6494

MULLIKEN ATOMIC CHARGES AND SPIN POPULATIONS
--------------------------------------------
   0 C :   -0.428935    1.112560
   1 H :    0.150624   -0.036323
   2 H :    0.133864   -0.039902
   3 H :    0.144448   -0.036335
Sum of atomic charges         :   -0.0000000

LOEWDIN ATOMIC CHARGES AND SPIN POPULATIONS
-------------------------------------------
   0 C :   -0.190545    0.928276
   1 H :    0.064021    0.024273
   2 H :    0.073634    0.019705
   3 H :    0.052889    0.027745

  Mayer bond orders larger than 0.100000
B(  0-C ,  1-H ) :   0.9687 B(  0-C ,  2-H ) :   0.9725 B(  0-C ,  3-H ) :   0.9709

FINAL SINGLE POINT ENERGY       -39.822260898609

DIPOLE MOMENT
-------------
                                X             Y             Z
Electronic contribution:     -0.09530       0.08423       0.04984
Nuclear contribution   :      0.10216      -0.07880      -0.06882
                        -----------------------------------------
Total Dipole Moment    :      0.00685       0.00543      -0.01898
                        -----------------------------------------
Magnitude (a.u.)       :      0.02089
Magnitude (Debye)      :      0.05311

Rotational constants in cm-1:     9.597205     8.074504     4.388201
Rotational constants in MHz : 287716.964498 242067.539467 131554.944771

                             ****ORCA TERMINATED NORMALLY****
TOTAL RUN TIME: 0 days 0 hours 0 minutes 20 seconds 794 msec
