                         Program Version 5.0.3 -  RELEASE  -
|  1> !B3LYP EPR-III Autoaux
|  2> !PAL4
|  3>
|  4> * xyz 0 2
|  5>  C    -91.7362001064   -120.9544720026    -32.9962930023
|  6>  H    -91.9152420656   -121.9540678473    -33.0810634940
|  7>  H    -90.7869600151   -120.5259149953    -32.9076049451
|  8>  H    -92.5792957891   -120.2915607582    -32.9822871166
|  9> *
| 10>
| 11> %EPRNMR
| 12>         GTENSOR   TRUE
| 13>         NUCLEI    = ALL H {AISO, ADIP, AORB}
| 14>         NUCLEI    = ALL C {AISO, ADIP, AORB}
| 15> END
| 16>
| 17>
| 18>                          ****END OF INPUT****

CARTESIAN COORDINATES (ANGSTROEM)
---------------------------------
  C    -91.736200  -120.954472  -32.996293
  H    -91.915242  -121.954068  -33.081063
  H    -90.786960  -120.525915  -32.907605
  H    -92.579296  -120.291561  -32.982287

 Total Charge           Charge          ....    0
 Multiplicity           Mult            ....    2
 Number of Electrons    NEL             ....    9
 Basis Dimension        Dim             ....   73

ORBITAL ENERGIES
----------------
                 SPIN UP ORBITALS
  NO   OCC          E(Eh)            E(eV)
   0   1.0000     -10.173441      -276.8334
   1   1.0000      -0.697231       -18.9726
   2   1.0000      -0.441019       -12.0007
   3   1.0000      -0.420135       -11.4324
   4   1.0000      -0.234630        -6.3846
   5   0.0000       0.001964         0.0534
   6   0.0000       0.035998         0.9796
   7   0.0000       0.037705         1.0260
   8   0.0000       0.047663         1.2970
   9   0.0000       0.093649         2.5483

                 SPIN DOWN ORBITALS
  NO   OCC          E(Eh)            E(eV)
   0   1.0000     -10.159205      -276.4460
   1   1.0000      -0.658111       -17.9081
   2   1.0000      -0.431134       -11.7318
   3   1.0000      -0.410392       -11.1673
   4   0.0000      -0.077638        -2.1126
   5   0.0000       0.004819         0.1311
   6   0.0000       0.035562         0.9677
   7   0.0000       0.037248         1.0136
   8   0.0000       0.060827         1.6552

MULLIKEN ATOMIC CHARGES AND SPIN POPULATIONS
--------------------------------------------
   0 C :   -0.428215    1.096631
   1 H :    0.147341   -0.030376
   2 H :    0.144381   -0.032059
   3 H :    0.136493   -0.034195
Sum of atomic charges         :   -0.0000000

LOEWDIN ATOMIC CHARGES AND SPIN POPULATIONS
-------------------------------------------
   0 C :   -0.117137    0.891645
   1 H :    0.025058    0.040633
   2 H :    0.039559    0.036029
   3 H :    0.052520    0.031693

  Mayer bond orders larger than 0.100000
B(  0-C ,  1-H ) :   0.9818 B(  0-C ,  2-H ) :   0.9819 B(  0-C ,  3-H ) :   0.9826

FINAL SINGLE POINT ENERGY       -39.825174440239

DIPOLE MOMENT
-------------
                                X             Y             Z
Electronic contribution:      0.05150      -0.06779      -0.00929
Nuclear contribution   :     -0.05464       0.06886       0.01343
                        -----------------------------------------
Total Dipole Moment    :     -0.00313       0.00106       0.00415
                        -----------------------------------------
Magnitude (a.u.)       :      0.00530
Magnitude (Debye)      :      0.01348

Rotational constants in cm-1:    10.419081     9.981603     5.097994
Rotational constants in MHz : 312356.196773 299240.928745 152834.022930

                             ****ORCA TERMINATED NORMALLY****
TOTAL RUN TIME: 0 days 0 hours 0 minutes 34 seconds 533 msec
