                         Program Version 5.0.3 -  RELEASE  -
|  1> !B3LYP EPR-III Autoaux
|  2> !PAL4
|  3>
|  4> * xyz 0 2
|  5>  C    -22.5990118833    -40.4435921512    -16.2408094187
|  6>  H    -21.5511669563    -40.7872040723    -15.9041109268
|  7>  H    -22.6366111162    -39.4350868918    -16.0985922359
|  8>  H    -23.4020351541    -41.0747304581    -16.5220063622
|  9> *
| 10>
| 11> %EPRNMR
| 12>         GTENSOR   TRUE
| 13>         NUCLEI    = ALL H {AISO, ADIP, AORB}
| 14>         NUCLEI    = ALL C {AISO, ADIP, AORB}
| 15> END
| 16>
| 17>
| 18>                          ****END OF INPUT****

CARTESIAN COORDINATES (ANGSTROEM)
---------------------------------
  C    -22.599012  -40.443592  -16.240809
  H    -21.551167  -40.787204  -15.904111
  H    -22.636611  -39.435087  -16.098592
  H    -23.402035  -41.074730  -16.522006

 Total Charge           Charge          ....    0
 Multiplicity           Mult            ....    2
 Number of Electrons    NEL             ....    9
 Basis Dimension        Dim             ....   73

ORBITAL ENERGIES
----------------
                 SPIN UP ORBITALS
  NO   OCC          E(Eh)            E(eV)
   0   1.0000     -10.183281      -277.1012
   1   1.0000      -0.690927       -18.8011
   2   1.0000      -0.447037       -12.1645
   3   1.0000      -0.398690       -10.8489
   4   1.0000      -0.235595        -6.4109
   5   0.0000       0.000700         0.0190
   6   0.0000       0.034379         0.9355
   7   0.0000       0.038891         1.0583
   8   0.0000       0.047442         1.2910
   9   0.0000       0.081948         2.2299

                 SPIN DOWN ORBITALS
  NO   OCC          E(Eh)            E(eV)
   0   1.0000     -10.168831      -276.7080
   1   1.0000      -0.651657       -17.7325
   2   1.0000      -0.437416       -11.9027
   3   1.0000      -0.389121       -10.5885
   4   0.0000      -0.077859        -2.1186
   5   0.0000       0.003831         0.1042
   6   0.0000       0.034054         0.9267
   7   0.0000       0.038510         1.0479
   8   0.0000       0.060647         1.6503

MULLIKEN ATOMIC CHARGES AND SPIN POPULATIONS
--------------------------------------------
   0 C :   -0.430386    1.103449
   1 H :    0.130976   -0.040204
   2 H :    0.145953   -0.031979
   3 H :    0.153457   -0.031267
Sum of atomic charges         :    0.0000000

LOEWDIN ATOMIC CHARGES AND SPIN POPULATIONS
-------------------------------------------
   0 C :   -0.142775    0.905384
   1 H :    0.081953    0.019428
   2 H :    0.017969    0.041313
   3 H :    0.042853    0.033874

  Mayer bond orders larger than 0.100000
B(  0-C ,  1-H ) :   0.9800 B(  0-C ,  2-H ) :   0.9783 B(  0-C ,  3-H ) :   0.9771

FINAL SINGLE POINT ENERGY       -39.819288859250

DIPOLE MOMENT
-------------
                                X             Y             Z
Electronic contribution:     -0.16750      -0.00437      -0.11301
Nuclear contribution   :      0.15531       0.02530       0.14819
                        -----------------------------------------
Total Dipole Moment    :     -0.01219       0.02092       0.03517
                        -----------------------------------------
Magnitude (a.u.)       :      0.04270
Magnitude (Debye)      :      0.10854

Rotational constants in cm-1:    11.211970     8.374009     4.804454
Rotational constants in MHz : 336126.391365 251046.480825 144033.920732

                             ****ORCA TERMINATED NORMALLY****
TOTAL RUN TIME: 0 days 0 hours 0 minutes 31 seconds 959 msec
