                         Program Version 5.0.3 -  RELEASE  -
|  1> !B3LYP EPR-III Autoaux
|  2> !PAL4
|  3>
|  4> * xyz 0 2
|  5>  C     12.1256825532     -1.1149636000     -7.2831360588
|  6>  H     13.0067826995     -0.5321975258     -6.8867574369
|  7>  H     11.3467524115     -1.5035279781     -6.6416572179
|  8>  H     12.1561493224     -1.4684461386     -8.3288359578
|  9> *
| 10>
| 11> %EPRNMR
| 12>         GTENSOR   TRUE
| 13>         NUCLEI    = ALL H {AISO, ADIP, AORB}
| 14>         NUCLEI    = ALL C {AISO, ADIP, AORB}
| 15> END
| 16>
| 17>
| 18>                          ****END OF INPUT****

CARTESIAN COORDINATES (ANGSTROEM)
---------------------------------
  C     12.125683   -1.114964   -7.283136
  H     13.006783   -0.532198   -6.886757
  H     11.346752   -1.503528   -6.641657
  H     12.156149   -1.468446   -8.328836

 Total Charge           Charge          ....    0
 Multiplicity           Mult            ....    2
 Number of Electrons    NEL             ....    9
 Basis Dimension        Dim             ....   73

ORBITAL ENERGIES
----------------
                 SPIN UP ORBITALS
  NO   OCC          E(Eh)            E(eV)
   0   1.0000     -10.191626      -277.3282
   1   1.0000      -0.681302       -18.5392
   2   1.0000      -0.422070       -11.4851
   3   1.0000      -0.412411       -11.2223
   4   1.0000      -0.235828        -6.4172
   5   0.0000       0.000094         0.0026
   6   0.0000       0.036272         0.9870
   7   0.0000       0.037268         1.0141
   8   0.0000       0.047345         1.2883
   9   0.0000       0.085347         2.3224

                 SPIN DOWN ORBITALS
  NO   OCC          E(Eh)            E(eV)
   0   1.0000     -10.177031      -276.9311
   1   1.0000      -0.641754       -17.4630
   2   1.0000      -0.412757       -11.2317
   3   1.0000      -0.403157       -10.9705
   4   0.0000      -0.077645        -2.1128
   5   0.0000       0.003432         0.0934
   6   0.0000       0.035959         0.9785
   7   0.0000       0.036930         1.0049
   8   0.0000       0.060625         1.6497

MULLIKEN ATOMIC CHARGES AND SPIN POPULATIONS
--------------------------------------------
   0 C :   -0.424901    1.105271
   1 H :    0.141493   -0.036482
   2 H :    0.144366   -0.033485
   3 H :    0.139042   -0.035303
Sum of atomic charges         :    0.0000000

LOEWDIN ATOMIC CHARGES AND SPIN POPULATIONS
-------------------------------------------
   0 C :   -0.170638    0.917806
   1 H :    0.067958    0.023560
   2 H :    0.046300    0.031137
   3 H :    0.056380    0.027497

  Mayer bond orders larger than 0.100000
B(  0-C ,  1-H ) :   0.9736 B(  0-C ,  2-H ) :   0.9740 B(  0-C ,  3-H ) :   0.9747

FINAL SINGLE POINT ENERGY       -39.826697337531

DIPOLE MOMENT
-------------
                                X             Y             Z
Electronic contribution:     -0.07529       0.07101       0.01496
Nuclear contribution   :      0.09941      -0.11938      -0.00588
                        -----------------------------------------
Total Dipole Moment    :      0.02412      -0.04836       0.00908
                        -----------------------------------------
Magnitude (a.u.)       :      0.05480
Magnitude (Debye)      :      0.13930

Rotational constants in cm-1:     9.505981     8.756395     4.583984
Rotational constants in MHz : 284982.143075 262510.107278 137424.397923

                             ****ORCA TERMINATED NORMALLY****
TOTAL RUN TIME: 0 days 0 hours 0 minutes 24 seconds 264 msec
