                         Program Version 5.0.3 -  RELEASE  -
|  1> !B3LYP EPR-III Autoaux
|  2> !PAL4
|  3>
|  4> * xyz 0 2
|  5>  C    -88.4686195141   -116.8239322484    -32.3376262467
|  6>  H    -88.8337365916   -115.8345354124    -32.2749814627
|  7>  H    -89.1098207844   -117.6479340099    -32.4426347629
|  8>  H    -87.4967620796   -117.1432022427    -32.3232657429
|  9> *
| 10>
| 11> %EPRNMR
| 12>         GTENSOR   TRUE
| 13>         NUCLEI    = ALL H {AISO, ADIP, AORB}
| 14>         NUCLEI    = ALL C {AISO, ADIP, AORB}
| 15> END
| 16>
| 17>
| 18>                          ****END OF INPUT****

CARTESIAN COORDINATES (ANGSTROEM)
---------------------------------
  C    -88.468620  -116.823932  -32.337626
  H    -88.833737  -115.834535  -32.274981
  H    -89.109821  -117.647934  -32.442635
  H    -87.496762  -117.143202  -32.323266

 Total Charge           Charge          ....    0
 Multiplicity           Mult            ....    2
 Number of Electrons    NEL             ....    9
 Basis Dimension        Dim             ....   73

ORBITAL ENERGIES
----------------
                 SPIN UP ORBITALS
  NO   OCC          E(Eh)            E(eV)
   0   1.0000     -10.172640      -276.8116
   1   1.0000      -0.698670       -19.0118
   2   1.0000      -0.445956       -12.1351
   3   1.0000      -0.415009       -11.2930
   4   1.0000      -0.234667        -6.3856
   5   0.0000       0.001947         0.0530
   6   0.0000       0.035173         0.9571
   7   0.0000       0.038428         1.0457
   8   0.0000       0.047668         1.2971
   9   0.0000       0.091962         2.5024

                 SPIN DOWN ORBITALS
  NO   OCC          E(Eh)            E(eV)
   0   1.0000     -10.158415      -276.4245
   1   1.0000      -0.659700       -17.9514
   2   1.0000      -0.436289       -11.8720
   3   1.0000      -0.404865       -11.0169
   4   0.0000      -0.077706        -2.1145
   5   0.0000       0.004788         0.1303
   6   0.0000       0.034772         0.9462
   7   0.0000       0.037937         1.0323
   8   0.0000       0.060820         1.6550

MULLIKEN ATOMIC CHARGES AND SPIN POPULATIONS
--------------------------------------------
   0 C :   -0.430483    1.097265
   1 H :    0.149467   -0.031867
   2 H :    0.136342   -0.033492
   3 H :    0.144673   -0.031906
Sum of atomic charges         :    0.0000000

LOEWDIN ATOMIC CHARGES AND SPIN POPULATIONS
-------------------------------------------
   0 C :   -0.116410    0.890701
   1 H :    0.047078    0.033747
   2 H :    0.041404    0.035629
   3 H :    0.027928    0.039923

  Mayer bond orders larger than 0.100000
B(  0-C ,  1-H ) :   0.9814 B(  0-C ,  2-H ) :   0.9835 B(  0-C ,  3-H ) :   0.9830

FINAL SINGLE POINT ENERGY       -39.823002173844

DIPOLE MOMENT
-------------
                                X             Y             Z
Electronic contribution:      0.02656       0.09887       0.01570
Nuclear contribution   :     -0.02583      -0.11533      -0.02099
                        -----------------------------------------
Total Dipole Moment    :      0.00073      -0.01645      -0.00529
                        -----------------------------------------
Magnitude (a.u.)       :      0.01730
Magnitude (Debye)      :      0.04397

Rotational constants in cm-1:    11.652553     9.153477     5.126610
Rotational constants in MHz : 349334.752490 274414.350236 153691.895410

                             ****ORCA TERMINATED NORMALLY****
TOTAL RUN TIME: 0 days 0 hours 0 minutes 21 seconds 484 msec
