                         Program Version 5.0.3 -  RELEASE  -
|  1> !B3LYP EPR-III Autoaux
|  2> !PAL4
|  3>
|  4> * xyz 0 2
|  5>  C     -2.7467939485    -18.0450648205    -11.1115149655
|  6>  H     -1.6940987746    -18.1295094119    -11.1381748152
|  7>  H     -3.3721824628    -17.2032703948    -11.6671693594
|  8>  H     -3.1645322197    -18.7093367879    -10.3370731184
|  9> *
| 10>
| 11> %EPRNMR
| 12>         GTENSOR   TRUE
| 13>         NUCLEI    = ALL H {AISO, ADIP, AORB}
| 14>         NUCLEI    = ALL C {AISO, ADIP, AORB}
| 15> END
| 16>
| 17>
| 18>                          ****END OF INPUT****

CARTESIAN COORDINATES (ANGSTROEM)
---------------------------------
  C     -2.746794  -18.045065  -11.111515
  H     -1.694099  -18.129509  -11.138175
  H     -3.372182  -17.203270  -11.667169
  H     -3.164532  -18.709337  -10.337073

 Total Charge           Charge          ....    0
 Multiplicity           Mult            ....    2
 Number of Electrons    NEL             ....    9
 Basis Dimension        Dim             ....   73

ORBITAL ENERGIES
----------------
                 SPIN UP ORBITALS
  NO   OCC          E(Eh)            E(eV)
   0   1.0000     -10.194222      -277.3989
   1   1.0000      -0.680916       -18.5287
   2   1.0000      -0.419780       -11.4228
   3   1.0000      -0.408346       -11.1117
   4   1.0000      -0.236001        -6.4219
   5   0.0000      -0.000919        -0.0250
   6   0.0000       0.035241         0.9590
   7   0.0000       0.037868         1.0304
   8   0.0000       0.047261         1.2860
   9   0.0000       0.075176         2.0456

                 SPIN DOWN ORBITALS
  NO   OCC          E(Eh)            E(eV)
   0   1.0000     -10.179542      -276.9994
   1   1.0000      -0.641472       -17.4553
   2   1.0000      -0.410744       -11.1769
   3   1.0000      -0.398725       -10.8499
   4   0.0000      -0.077599        -2.1116
   5   0.0000       0.002656         0.0723
   6   0.0000       0.035136         0.9561
   7   0.0000       0.037494         1.0203
   8   0.0000       0.060552         1.6477

MULLIKEN ATOMIC CHARGES AND SPIN POPULATIONS
--------------------------------------------
   0 C :   -0.427977    1.108512
   1 H :    0.143664   -0.032899
   2 H :    0.146067   -0.039842
   3 H :    0.138247   -0.035771
Sum of atomic charges         :   -0.0000000

LOEWDIN ATOMIC CHARGES AND SPIN POPULATIONS
-------------------------------------------
   0 C :   -0.177594    0.921921
   1 H :    0.031514    0.035571
   2 H :    0.091617    0.014583
   3 H :    0.054462    0.027925

  Mayer bond orders larger than 0.100000
B(  0-C ,  1-H ) :   0.9736 B(  0-C ,  2-H ) :   0.9692 B(  0-C ,  3-H ) :   0.9744

FINAL SINGLE POINT ENERGY       -39.819352934222

DIPOLE MOMENT
-------------
                                X             Y             Z
Electronic contribution:      0.01451      -0.04339      -0.09578
Nuclear contribution   :      0.00717       0.06976       0.14400
                        -----------------------------------------
Total Dipole Moment    :      0.02169       0.02637       0.04822
                        -----------------------------------------
Magnitude (a.u.)       :      0.05908
Magnitude (Debye)      :      0.15018

Rotational constants in cm-1:    10.588524     7.711779     4.488593
Rotational constants in MHz : 317435.960464 231193.317473 134564.635807

                             ****ORCA TERMINATED NORMALLY****
TOTAL RUN TIME: 0 days 0 hours 0 minutes 20 seconds 289 msec
