                         Program Version 5.0.3 -  RELEASE  -
|  1> !B3LYP EPR-III Autoaux
|  2> !PAL4
|  3>
|  4> * xyz 0 2
|  5>  C    -80.2018838727   -106.6263401730    -30.4227232441
|  6>  H    -79.7833287457   -105.6670997228    -30.3188884369
|  7>  H    -81.2517265803   -106.8114008134    -30.4838682036
|  8>  H    -79.5809617150   -107.4525037817    -30.4627154018
|  9> *
| 10>
| 11> %EPRNMR
| 12>         GTENSOR   TRUE
| 13>         NUCLEI    = ALL H {AISO, ADIP, AORB}
| 14>         NUCLEI    = ALL C {AISO, ADIP, AORB}
| 15> END
| 16>
| 17>
| 18>                          ****END OF INPUT****

CARTESIAN COORDINATES (ANGSTROEM)
---------------------------------
  C    -80.201884  -106.626340  -30.422723
  H    -79.783329  -105.667100  -30.318888
  H    -81.251727  -106.811401  -30.483868
  H    -79.580962  -107.452504  -30.462715

 Total Charge           Charge          ....    0
 Multiplicity           Mult            ....    2
 Number of Electrons    NEL             ....    9
 Basis Dimension        Dim             ....   73

ORBITAL ENERGIES
----------------
                 SPIN UP ORBITALS
  NO   OCC          E(Eh)            E(eV)
   0   1.0000     -10.175139      -276.8796
   1   1.0000      -0.695562       -18.9272
   2   1.0000      -0.433985       -11.8093
   3   1.0000      -0.424374       -11.5478
   4   1.0000      -0.234545        -6.3823
   5   0.0000       0.001836         0.0500
   6   0.0000       0.036268         0.9869
   7   0.0000       0.037437         1.0187
   8   0.0000       0.047645         1.2965
   9   0.0000       0.092718         2.5230

                 SPIN DOWN ORBITALS
  NO   OCC          E(Eh)            E(eV)
   0   1.0000     -10.160877      -276.4915
   1   1.0000      -0.656417       -17.8620
   2   1.0000      -0.424337       -11.5468
   3   1.0000      -0.414490       -11.2789
   4   0.0000      -0.077527        -2.1096
   5   0.0000       0.004733         0.1288
   6   0.0000       0.035844         0.9754
   7   0.0000       0.036982         1.0063
   8   0.0000       0.060830         1.6553

MULLIKEN ATOMIC CHARGES AND SPIN POPULATIONS
--------------------------------------------
   0 C :   -0.427962    1.097690
   1 H :    0.144831   -0.032238
   2 H :    0.141495   -0.033617
   3 H :    0.141637   -0.031835
Sum of atomic charges         :   -0.0000000

LOEWDIN ATOMIC CHARGES AND SPIN POPULATIONS
-------------------------------------------
   0 C :   -0.123184    0.894312
   1 H :    0.041856    0.035019
   2 H :    0.049731    0.032389
   3 H :    0.031596    0.038280

  Mayer bond orders larger than 0.100000
B(  0-C ,  1-H ) :   0.9810 B(  0-C ,  2-H ) :   0.9813 B(  0-C ,  3-H ) :   0.9815

FINAL SINGLE POINT ENERGY       -39.826575043142

DIPOLE MOMENT
-------------
                                X             Y             Z
Electronic contribution:      0.01246       0.03085      -0.00027
Nuclear contribution   :     -0.00777      -0.03896       0.00202
                        -----------------------------------------
Total Dipole Moment    :      0.00469      -0.00811       0.00175
                        -----------------------------------------
Magnitude (a.u.)       :      0.00953
Magnitude (Debye)      :      0.02423

Rotational constants in cm-1:    10.666562     9.567926     5.043756
Rotational constants in MHz : 319775.479808 286839.213454 151208.001626

                             ****ORCA TERMINATED NORMALLY****
TOTAL RUN TIME: 0 days 0 hours 0 minutes 26 seconds 689 msec
