                         Program Version 5.0.3 -  RELEASE  -
|  1> !B3LYP EPR-III Autoaux
|  2> !PAL4
|  3>
|  4> * xyz 0 2
|  5>  C    -42.2143482680    -62.5128232902    -21.2105813261
|  6>  H    -41.2656970185    -62.9311444079    -21.2359035836
|  7>  H    -42.4756377692    -61.4706276701    -21.0718640495
|  8>  H    -43.0293516665    -63.1542493232    -21.3683195884
|  9> *
| 10>
| 11> %EPRNMR
| 12>         GTENSOR   TRUE
| 13>         NUCLEI    = ALL H {AISO, ADIP, AORB}
| 14>         NUCLEI    = ALL C {AISO, ADIP, AORB}
| 15> END
| 16>
| 17>
| 18>                          ****END OF INPUT****

CARTESIAN COORDINATES (ANGSTROEM)
---------------------------------
  C    -42.214348  -62.512823  -21.210581
  H    -41.265697  -62.931144  -21.235904
  H    -42.475638  -61.470628  -21.071864
  H    -43.029352  -63.154249  -21.368320

 Total Charge           Charge          ....    0
 Multiplicity           Mult            ....    2
 Number of Electrons    NEL             ....    9
 Basis Dimension        Dim             ....   73

ORBITAL ENERGIES
----------------
                 SPIN UP ORBITALS
  NO   OCC          E(Eh)            E(eV)
   0   1.0000     -10.176834      -276.9257
   1   1.0000      -0.694457       -18.8971
   2   1.0000      -0.439041       -11.9469
   3   1.0000      -0.416545       -11.3348
   4   1.0000      -0.234664        -6.3855
   5   0.0000       0.001656         0.0451
   6   0.0000       0.035565         0.9678
   7   0.0000       0.038035         1.0350
   8   0.0000       0.047611         1.2956
   9   0.0000       0.089055         2.4233

                 SPIN DOWN ORBITALS
  NO   OCC          E(Eh)            E(eV)
   0   1.0000     -10.162538      -276.5367
   1   1.0000      -0.655294       -17.8315
   2   1.0000      -0.429466       -11.6864
   3   1.0000      -0.406655       -11.0657
   4   0.0000      -0.077545        -2.1101
   5   0.0000       0.004592         0.1250
   6   0.0000       0.035167         0.9570
   7   0.0000       0.037581         1.0226
   8   0.0000       0.060804         1.6545

MULLIKEN ATOMIC CHARGES AND SPIN POPULATIONS
--------------------------------------------
   0 C :   -0.428865    1.099045
   1 H :    0.148175   -0.031305
   2 H :    0.143091   -0.034700
   3 H :    0.137598   -0.033040
Sum of atomic charges         :   -0.0000000

LOEWDIN ATOMIC CHARGES AND SPIN POPULATIONS
-------------------------------------------
   0 C :   -0.128262    0.896721
   1 H :    0.033351    0.037575
   2 H :    0.056863    0.029767
   3 H :    0.038047    0.035937

  Mayer bond orders larger than 0.100000
B(  0-C ,  1-H ) :   0.9806 B(  0-C ,  2-H ) :   0.9804 B(  0-C ,  3-H ) :   0.9814

FINAL SINGLE POINT ENERGY       -39.825766032849

DIPOLE MOMENT
-------------
                                X             Y             Z
Electronic contribution:      0.08456       0.00476       0.02124
Nuclear contribution   :     -0.09566      -0.01315      -0.03323
                        -----------------------------------------
Total Dipole Moment    :     -0.01110      -0.00839      -0.01199
                        -----------------------------------------
Magnitude (a.u.)       :      0.01837
Magnitude (Debye)      :      0.04670

Rotational constants in cm-1:    10.895918     9.219382     4.994811
Rotational constants in MHz : 326651.413087 276390.117101 149740.661332

                             ****ORCA TERMINATED NORMALLY****
TOTAL RUN TIME: 0 days 0 hours 0 minutes 21 seconds 84 msec
