                         Program Version 5.0.3 -  RELEASE  -
|  1> !B3LYP EPR-III Autoaux
|  2> !PAL4
|  3>
|  4> * xyz 0 2
|  5>  C    -76.3667730440   -101.9506938224    -29.4949033194
|  6>  H    -76.9528709120   -102.8483218442    -29.6073515519
|  7>  H    -75.3509784021   -102.0272203115    -29.4775885045
|  8>  H    -77.0509382889   -101.1156423159    -29.4705675630
|  9> *
| 10>
| 11> %EPRNMR
| 12>         GTENSOR   TRUE
| 13>         NUCLEI    = ALL H {AISO, ADIP, AORB}
| 14>         NUCLEI    = ALL C {AISO, ADIP, AORB}
| 15> END
| 16>
| 17>
| 18>                          ****END OF INPUT****

CARTESIAN COORDINATES (ANGSTROEM)
---------------------------------
  C    -76.366773  -101.950694  -29.494903
  H    -76.952871  -102.848322  -29.607352
  H    -75.350978  -102.027220  -29.477589
  H    -77.050938  -101.115642  -29.470568

 Total Charge           Charge          ....    0
 Multiplicity           Mult            ....    2
 Number of Electrons    NEL             ....    9
 Basis Dimension        Dim             ....   73

ORBITAL ENERGIES
----------------
                 SPIN UP ORBITALS
  NO   OCC          E(Eh)            E(eV)
   0   1.0000     -10.177948      -276.9560
   1   1.0000      -0.694688       -18.9034
   2   1.0000      -0.452378       -12.3098
   3   1.0000      -0.401451       -10.9240
   4   1.0000      -0.235105        -6.3975
   5   0.0000       0.001485         0.0404
   6   0.0000       0.034119         0.9284
   7   0.0000       0.039179         1.0661
   8   0.0000       0.047555         1.2940
   9   0.0000       0.085431         2.3247

                 SPIN DOWN ORBITALS
  NO   OCC          E(Eh)            E(eV)
   0   1.0000     -10.163621      -276.5662
   1   1.0000      -0.655525       -17.8378
   2   1.0000      -0.442825       -12.0499
   3   1.0000      -0.391552       -10.6547
   4   0.0000      -0.077832        -2.1179
   5   0.0000       0.004430         0.1205
   6   0.0000       0.033758         0.9186
   7   0.0000       0.038720         1.0536
   8   0.0000       0.060727         1.6525

MULLIKEN ATOMIC CHARGES AND SPIN POPULATIONS
--------------------------------------------
   0 C :   -0.431461    1.100703
   1 H :    0.130817   -0.035419
   2 H :    0.155375   -0.029472
   3 H :    0.145269   -0.035811
Sum of atomic charges         :   -0.0000000

LOEWDIN ATOMIC CHARGES AND SPIN POPULATIONS
-------------------------------------------
   0 C :   -0.130810    0.897911
   1 H :    0.051632    0.031274
   2 H :    0.023594    0.040606
   3 H :    0.055585    0.030209

  Mayer bond orders larger than 0.100000
B(  0-C ,  1-H ) :   0.9823 B(  0-C ,  2-H ) :   0.9807 B(  0-C ,  3-H ) :   0.9810

FINAL SINGLE POINT ENERGY       -39.821810623046

DIPOLE MOMENT
-------------
                                X             Y             Z
Electronic contribution:      0.17348       0.08981       0.03676
Nuclear contribution   :     -0.19072      -0.10425      -0.05306
                        -----------------------------------------
Total Dipole Moment    :     -0.01724      -0.01445      -0.01630
                        -----------------------------------------
Magnitude (a.u.)       :      0.02778
Magnitude (Debye)      :      0.07061

Rotational constants in cm-1:    11.311855     8.885749     4.978435
Rotational constants in MHz : 339120.873289 266388.051844 149249.725343

                             ****ORCA TERMINATED NORMALLY****
TOTAL RUN TIME: 0 days 0 hours 0 minutes 22 seconds 77 msec
