                         Program Version 5.0.3 -  RELEASE  -
|  1> !B3LYP EPR-III Autoaux
|  2> !PAL4
|  3>
|  4> * xyz 0 2
|  5>  C    -25.8190563109    -44.1098381439    -17.0645091292
|  6>  H    -26.9167159503    -43.9780469768    -17.2389387547
|  7>  H    -25.5886597114    -45.1213028035    -17.1880895947
|  8>  H    -25.1748169808    -43.3098213011    -16.7523276683
|  9> *
| 10>
| 11> %EPRNMR
| 12>         GTENSOR   TRUE
| 13>         NUCLEI    = ALL H {AISO, ADIP, AORB}
| 14>         NUCLEI    = ALL C {AISO, ADIP, AORB}
| 15> END
| 16>
| 17>
| 18>                          ****END OF INPUT****

CARTESIAN COORDINATES (ANGSTROEM)
---------------------------------
  C    -25.819056  -44.109838  -17.064509
  H    -26.916716  -43.978047  -17.238939
  H    -25.588660  -45.121303  -17.188090
  H    -25.174817  -43.309821  -16.752328

 Total Charge           Charge          ....    0
 Multiplicity           Mult            ....    2
 Number of Electrons    NEL             ....    9
 Basis Dimension        Dim             ....   73

ORBITAL ENERGIES
----------------
                 SPIN UP ORBITALS
  NO   OCC          E(Eh)            E(eV)
   0   1.0000     -10.184001      -277.1207
   1   1.0000      -0.688953       -18.7474
   2   1.0000      -0.442865       -12.0510
   3   1.0000      -0.402214       -10.9448
   4   1.0000      -0.235080        -6.3969
   5   0.0000       0.000901         0.0245
   6   0.0000       0.034651         0.9429
   7   0.0000       0.038689         1.0528
   8   0.0000       0.047467         1.2917
   9   0.0000       0.086811         2.3622

                 SPIN DOWN ORBITALS
  NO   OCC          E(Eh)            E(eV)
   0   1.0000     -10.169564      -276.7279
   1   1.0000      -0.649604       -17.6766
   2   1.0000      -0.433438       -11.7944
   3   1.0000      -0.392587       -10.6828
   4   0.0000      -0.077562        -2.1106
   5   0.0000       0.004024         0.1095
   6   0.0000       0.034314         0.9337
   7   0.0000       0.038276         1.0416
   8   0.0000       0.060702         1.6518

MULLIKEN ATOMIC CHARGES AND SPIN POPULATIONS
--------------------------------------------
   0 C :   -0.429687    1.103840
   1 H :    0.132281   -0.037881
   2 H :    0.145159   -0.033305
   3 H :    0.152248   -0.032655
Sum of atomic charges         :    0.0000000

LOEWDIN ATOMIC CHARGES AND SPIN POPULATIONS
-------------------------------------------
   0 C :   -0.148457    0.906905
   1 H :    0.067134    0.024771
   2 H :    0.032168    0.036802
   3 H :    0.049155    0.031523

  Mayer bond orders larger than 0.100000
B(  0-C ,  1-H ) :   0.9796 B(  0-C ,  2-H ) :   0.9783 B(  0-C ,  3-H ) :   0.9763

FINAL SINGLE POINT ENERGY       -39.824001495465

DIPOLE MOMENT
-------------
                                X             Y             Z
Electronic contribution:      0.15871       0.04279       0.00583
Nuclear contribution   :     -0.16715      -0.05970       0.01062
                        -----------------------------------------
Total Dipole Moment    :     -0.00844      -0.01691       0.01645
                        -----------------------------------------
Magnitude (a.u.)       :      0.02506
Magnitude (Debye)      :      0.06370

Rotational constants in cm-1:    10.861300     8.556827     4.789970
Rotational constants in MHz : 325613.585988 256527.209226 143599.675033

                             ****ORCA TERMINATED NORMALLY****
TOTAL RUN TIME: 0 days 0 hours 0 minutes 25 seconds 640 msec
