                         Program Version 5.0.3 -  RELEASE  -
|  1> !B3LYP EPR-III Autoaux
|  2> !PAL4
|  3>
|  4> * xyz 0 2
|  5>  C    -77.2640588706   -103.0199270995    -29.7060852119
|  6>  H    -77.0133148267   -104.0508634516    -29.8056696674
|  7>  H    -76.4425557343   -102.3824776139    -29.6233006795
|  8>  H    -78.3217413300   -102.8342620229    -29.7421182811
|  9> *
| 10>
| 11> %EPRNMR
| 12>         GTENSOR   TRUE
| 13>         NUCLEI    = ALL H {AISO, ADIP, AORB}
| 14>         NUCLEI    = ALL C {AISO, ADIP, AORB}
| 15> END
| 16>
| 17>
| 18>                          ****END OF INPUT****

CARTESIAN COORDINATES (ANGSTROEM)
---------------------------------
  C    -77.264059  -103.019927  -29.706085
  H    -77.013315  -104.050863  -29.805670
  H    -76.442556  -102.382478  -29.623301
  H    -78.321741  -102.834262  -29.742118

 Total Charge           Charge          ....    0
 Multiplicity           Mult            ....    2
 Number of Electrons    NEL             ....    9
 Basis Dimension        Dim             ....   73

ORBITAL ENERGIES
----------------
                 SPIN UP ORBITALS
  NO   OCC          E(Eh)            E(eV)
   0   1.0000     -10.178396      -276.9682
   1   1.0000      -0.693493       -18.8709
   2   1.0000      -0.443968       -12.0810
   3   1.0000      -0.408905       -11.1269
   4   1.0000      -0.234787        -6.3889
   5   0.0000       0.001483         0.0403
   6   0.0000       0.034805         0.9471
   7   0.0000       0.038637         1.0514
   8   0.0000       0.047575         1.2946
   9   0.0000       0.086125         2.3436

                 SPIN DOWN ORBITALS
  NO   OCC          E(Eh)            E(eV)
   0   1.0000     -10.164070      -276.5784
   1   1.0000      -0.654326       -17.8051
   2   1.0000      -0.434530       -11.8242
   3   1.0000      -0.398934       -10.8555
   4   0.0000      -0.077596        -2.1115
   5   0.0000       0.004451         0.1211
   6   0.0000       0.034430         0.9369
   7   0.0000       0.038179         1.0389
   8   0.0000       0.060772         1.6537

MULLIKEN ATOMIC CHARGES AND SPIN POPULATIONS
--------------------------------------------
   0 C :   -0.430258    1.100660
   1 H :    0.132613   -0.034357
   2 H :    0.150100   -0.032014
   3 H :    0.147544   -0.034290
Sum of atomic charges         :    0.0000000

LOEWDIN ATOMIC CHARGES AND SPIN POPULATIONS
-------------------------------------------
   0 C :   -0.133804    0.899007
   1 H :    0.045055    0.033366
   2 H :    0.036240    0.036494
   3 H :    0.052510    0.031133

  Mayer bond orders larger than 0.100000
B(  0-C ,  1-H ) :   0.9816 B(  0-C ,  2-H ) :   0.9802 B(  0-C ,  3-H ) :   0.9798

FINAL SINGLE POINT ENERGY       -39.824847281199

DIPOLE MOMENT
-------------
                                X             Y             Z
Electronic contribution:     -0.00540       0.13575       0.02817
Nuclear contribution   :      0.01092      -0.15576      -0.03960
                        -----------------------------------------
Total Dipole Moment    :      0.00552      -0.02000      -0.01143
                        -----------------------------------------
Magnitude (a.u.)       :      0.02369
Magnitude (Debye)      :      0.06022

Rotational constants in cm-1:    11.153721     8.914897     4.955579
Rotational constants in MHz : 334380.139588 267261.901767 148564.529135

                             ****ORCA TERMINATED NORMALLY****
TOTAL RUN TIME: 0 days 0 hours 0 minutes 18 seconds 607 msec
