                         Program Version 5.0.3 -  RELEASE  -
|  1> !B3LYP EPR-III Autoaux
|  2> !PAL4
|  3>
|  4> * xyz 0 2
|  5>  C    -60.1593680232    -82.5434370001    -25.7182342800
|  6>  H    -61.1766693235    -82.2450500280    -25.6510118059
|  7>  H    -59.9770143924    -83.5421324981    -25.8221037772
|  8>  H    -59.2952944519    -81.8502104106    -25.6285830268
|  9> *
| 10>
| 11> %EPRNMR
| 12>         GTENSOR   TRUE
| 13>         NUCLEI    = ALL H {AISO, ADIP, AORB}
| 14>         NUCLEI    = ALL C {AISO, ADIP, AORB}
| 15> END
| 16>
| 17>
| 18>                          ****END OF INPUT****

CARTESIAN COORDINATES (ANGSTROEM)
---------------------------------
  C    -60.159368  -82.543437  -25.718234
  H    -61.176669  -82.245050  -25.651012
  H    -59.977014  -83.542132  -25.822104
  H    -59.295294  -81.850210  -25.628583

 Total Charge           Charge          ....    0
 Multiplicity           Mult            ....    2
 Number of Electrons    NEL             ....    9
 Basis Dimension        Dim             ....   73

ORBITAL ENERGIES
----------------
                 SPIN UP ORBITALS
  NO   OCC          E(Eh)            E(eV)
   0   1.0000     -10.179160      -276.9890
   1   1.0000      -0.692725       -18.8500
   2   1.0000      -0.428213       -11.6523
   3   1.0000      -0.423685       -11.5290
   4   1.0000      -0.234696        -6.3864
   5   0.0000       0.001364         0.0371
   6   0.0000       0.036304         0.9879
   7   0.0000       0.037296         1.0149
   8   0.0000       0.047572         1.2945
   9   0.0000       0.087370         2.3775

                 SPIN DOWN ORBITALS
  NO   OCC          E(Eh)            E(eV)
   0   1.0000     -10.164814      -276.5986
   1   1.0000      -0.653509       -17.7829
   2   1.0000      -0.418544       -11.3891
   3   1.0000      -0.414016       -11.2659
   4   0.0000      -0.077443        -2.1073
   5   0.0000       0.004380         0.1192
   6   0.0000       0.035927         0.9776
   7   0.0000       0.036866         1.0032
   8   0.0000       0.060790         1.6542

MULLIKEN ATOMIC CHARGES AND SPIN POPULATIONS
--------------------------------------------
   0 C :   -0.428317    1.100346
   1 H :    0.143416   -0.033132
   2 H :    0.143711   -0.031065
   3 H :    0.141191   -0.036149
Sum of atomic charges         :   -0.0000000

LOEWDIN ATOMIC CHARGES AND SPIN POPULATIONS
-------------------------------------------
   0 C :   -0.133877    0.900055
   1 H :    0.044734    0.033531
   2 H :    0.021066    0.040998
   3 H :    0.068077    0.025415

  Mayer bond orders larger than 0.100000
B(  0-C ,  1-H ) :   0.9798 B(  0-C ,  2-H ) :   0.9796 B(  0-C ,  3-H ) :   0.9788

FINAL SINGLE POINT ENERGY       -39.825014313962

DIPOLE MOMENT
-------------
                                X             Y             Z
Electronic contribution:     -0.02361      -0.01190      -0.02613
Nuclear contribution   :      0.02183      -0.00531       0.03973
                        -----------------------------------------
Total Dipole Moment    :     -0.00178      -0.01721       0.01360
                        -----------------------------------------
Magnitude (a.u.)       :      0.02201
Magnitude (Debye)      :      0.05593

Rotational constants in cm-1:    10.830259     8.984275     4.912866
Rotational constants in MHz : 324682.992871 269341.784998 147284.030067

                             ****ORCA TERMINATED NORMALLY****
TOTAL RUN TIME: 0 days 0 hours 0 minutes 21 seconds 611 msec
