                         Program Version 5.0.3 -  RELEASE  -
|  1> !B3LYP EPR-III Autoaux
|  2> !PAL4
|  3>
|  4> * xyz 0 2
|  5>  C    -82.7522338227   -109.7798140405    -31.0487905117
|  6>  H    -83.7781285647   -109.9991612045    -31.0964118228
|  7>  H    -82.0930179613   -110.6209975880    -31.0903664155
|  8>  H    -82.5864755785   -108.7795321180    -30.9566097831
|  9> *
| 10>
| 11> %EPRNMR
| 12>         GTENSOR   TRUE
| 13>         NUCLEI    = ALL H {AISO, ADIP, AORB}
| 14>         NUCLEI    = ALL C {AISO, ADIP, AORB}
| 15> END
| 16>
| 17>
| 18>                          ****END OF INPUT****

CARTESIAN COORDINATES (ANGSTROEM)
---------------------------------
  C    -82.752234  -109.779814  -31.048791
  H    -83.778129  -109.999161  -31.096412
  H    -82.093018  -110.620998  -31.090366
  H    -82.586476  -108.779532  -30.956610

 Total Charge           Charge          ....    0
 Multiplicity           Mult            ....    2
 Number of Electrons    NEL             ....    9
 Basis Dimension        Dim             ....   73

ORBITAL ENERGIES
----------------
                 SPIN UP ORBITALS
  NO   OCC          E(Eh)            E(eV)
   0   1.0000     -10.173610      -276.8380
   1   1.0000      -0.698142       -18.9974
   2   1.0000      -0.447525       -12.1778
   3   1.0000      -0.411805       -11.2058
   4   1.0000      -0.234751        -6.3879
   5   0.0000       0.001831         0.0498
   6   0.0000       0.034826         0.9477
   7   0.0000       0.038668         1.0522
   8   0.0000       0.047646         1.2965
   9   0.0000       0.087994         2.3944

                 SPIN DOWN ORBITALS
  NO   OCC          E(Eh)            E(eV)
   0   1.0000     -10.159365      -276.4504
   1   1.0000      -0.659156       -17.9365
   2   1.0000      -0.437919       -11.9164
   3   1.0000      -0.401645       -10.9293
   4   0.0000      -0.077731        -2.1152
   5   0.0000       0.004693         0.1277
   6   0.0000       0.034436         0.9371
   7   0.0000       0.038184         1.0390
   8   0.0000       0.060800         1.6545

MULLIKEN ATOMIC CHARGES AND SPIN POPULATIONS
--------------------------------------------
   0 C :   -0.431314    1.098161
   1 H :    0.132946   -0.033527
   2 H :    0.148539   -0.033519
   3 H :    0.149829   -0.031116
Sum of atomic charges         :    0.0000000

LOEWDIN ATOMIC CHARGES AND SPIN POPULATIONS
-------------------------------------------
   0 C :   -0.119331    0.892040
   1 H :    0.040627    0.035722
   2 H :    0.053388    0.031584
   3 H :    0.025315    0.040654

  Mayer bond orders larger than 0.100000
B(  0-C ,  1-H ) :   0.9833 B(  0-C ,  2-H ) :   0.9814 B(  0-C ,  3-H ) :   0.9828

FINAL SINGLE POINT ENERGY       -39.822151517134

DIPOLE MOMENT
-------------
                                X             Y             Z
Electronic contribution:      0.12730       0.04338       0.00116
Nuclear contribution   :     -0.15059      -0.04516       0.00224
                        -----------------------------------------
Total Dipole Moment    :     -0.02328      -0.00178       0.00340
                        -----------------------------------------
Magnitude (a.u.)       :      0.02360
Magnitude (Debye)      :      0.05998

Rotational constants in cm-1:    11.652017     9.063965     5.098340
Rotational constants in MHz : 349318.694684 271730.838642 152844.380121

                             ****ORCA TERMINATED NORMALLY****
TOTAL RUN TIME: 0 days 0 hours 0 minutes 24 seconds 754 msec
