                         Program Version 5.0.3 -  RELEASE  -
|  1> !B3LYP EPR-III Autoaux
|  2> !PAL4
|  3>
|  4> * xyz 0 2
|  5>  C    -79.8378605341   -106.1839475343    -30.3315994086
|  6>  H    -79.1738987258   -105.2964242358    -30.2428578620
|  7>  H    -80.8913509945   -106.0107551132    -30.3718691795
|  8>  H    -79.4949110321   -107.3007519013    -30.4177596542
|  9> *
| 10>
| 11> %EPRNMR
| 12>         GTENSOR   TRUE
| 13>         NUCLEI    = ALL H {AISO, ADIP, AORB}
| 14>         NUCLEI    = ALL C {AISO, ADIP, AORB}
| 15> END
| 16>
| 17>
| 18>                          ****END OF INPUT****

CARTESIAN COORDINATES (ANGSTROEM)
---------------------------------
  C    -79.837861  -106.183948  -30.331599
  H    -79.173899  -105.296424  -30.242858
  H    -80.891351  -106.010755  -30.371869
  H    -79.494911  -107.300752  -30.417760

 Total Charge           Charge          ....    0
 Multiplicity           Mult            ....    2
 Number of Electrons    NEL             ....    9
 Basis Dimension        Dim             ....   73

ORBITAL ENERGIES
----------------
                 SPIN UP ORBITALS
  NO   OCC          E(Eh)            E(eV)
   0   1.0000     -10.194893      -277.4171
   1   1.0000      -0.678885       -18.4734
   2   1.0000      -0.420468       -11.4415
   3   1.0000      -0.408717       -11.1218
   4   1.0000      -0.234895        -6.3918
   5   0.0000      -0.000754        -0.0205
   6   0.0000       0.035637         0.9697
   7   0.0000       0.037500         1.0204
   8   0.0000       0.047297         1.2870
   9   0.0000       0.077155         2.0995

                 SPIN DOWN ORBITALS
  NO   OCC          E(Eh)            E(eV)
   0   1.0000     -10.180232      -277.0182
   1   1.0000      -0.639065       -17.3899
   2   1.0000      -0.411419       -11.1953
   3   1.0000      -0.399499       -10.8709
   4   0.0000      -0.076940        -2.0937
   5   0.0000       0.002850         0.0776
   6   0.0000       0.035396         0.9632
   7   0.0000       0.037183         1.0118
   8   0.0000       0.060661         1.6507

MULLIKEN ATOMIC CHARGES AND SPIN POPULATIONS
--------------------------------------------
   0 C :   -0.428224    1.110792
   1 H :    0.145858   -0.036168
   2 H :    0.141412   -0.034038
   3 H :    0.140953   -0.040585
Sum of atomic charges         :   -0.0000000

LOEWDIN ATOMIC CHARGES AND SPIN POPULATIONS
-------------------------------------------
   0 C :   -0.179981    0.923459
   1 H :    0.059744    0.026101
   2 H :    0.036379    0.033640
   3 H :    0.083858    0.016800

  Mayer bond orders larger than 0.100000
B(  0-C ,  1-H ) :   0.9717 B(  0-C ,  2-H ) :   0.9730 B(  0-C ,  3-H ) :   0.9712

FINAL SINGLE POINT ENERGY       -39.822413084319

DIPOLE MOMENT
-------------
                                X             Y             Z
Electronic contribution:      0.01645       0.05081       0.01964
Nuclear contribution   :     -0.03491      -0.04204      -0.02825
                        -----------------------------------------
Total Dipole Moment    :     -0.01846       0.00877      -0.00861
                        -----------------------------------------
Magnitude (a.u.)       :      0.02218
Magnitude (Debye)      :      0.05637

Rotational constants in cm-1:    10.019042     8.037354     4.460339
Rotational constants in MHz : 300363.311286 240953.811214 133717.590531

                             ****ORCA TERMINATED NORMALLY****
TOTAL RUN TIME: 0 days 0 hours 0 minutes 25 seconds 311 msec
