                         Program Version 5.0.3 -  RELEASE  -
|  1> !B3LYP EPR-III Autoaux
|  2> !PAL4
|  3>
|  4> * xyz 0 2
|  5>  C    -17.9196078462    -35.1759238029    -15.0134063721
|  6>  H    -16.9123881308    -34.6458481324    -15.2008790629
|  7>  H    -18.7144758795    -34.8063876333    -14.4707752426
|  8>  H    -17.9275309383    -36.0826590622    -15.5043291594
|  9> *
| 10>
| 11> %EPRNMR
| 12>         GTENSOR   TRUE
| 13>         NUCLEI    = ALL H {AISO, ADIP, AORB}
| 14>         NUCLEI    = ALL C {AISO, ADIP, AORB}
| 15> END
| 16>
| 17>
| 18>                          ****END OF INPUT****

CARTESIAN COORDINATES (ANGSTROEM)
---------------------------------
  C    -17.919608  -35.175924  -15.013406
  H    -16.912388  -34.645848  -15.200879
  H    -18.714476  -34.806388  -14.470775
  H    -17.927531  -36.082659  -15.504329

 Total Charge           Charge          ....    0
 Multiplicity           Mult            ....    2
 Number of Electrons    NEL             ....    9
 Basis Dimension        Dim             ....   73

ORBITAL ENERGIES
----------------
                 SPIN UP ORBITALS
  NO   OCC          E(Eh)            E(eV)
   0   1.0000     -10.181822      -277.0615
   1   1.0000      -0.692075       -18.8323
   2   1.0000      -0.446448       -12.1485
   3   1.0000      -0.402795       -10.9606
   4   1.0000      -0.235205        -6.4003
   5   0.0000       0.000881         0.0240
   6   0.0000       0.034649         0.9428
   7   0.0000       0.038553         1.0491
   8   0.0000       0.047379         1.2893
   9   0.0000       0.082127         2.2348

                 SPIN DOWN ORBITALS
  NO   OCC          E(Eh)            E(eV)
   0   1.0000     -10.167457      -276.6706
   1   1.0000      -0.652792       -17.7634
   2   1.0000      -0.436767       -11.8850
   3   1.0000      -0.393339       -10.7033
   4   0.0000      -0.077790        -2.1168
   5   0.0000       0.003974         0.1081
   6   0.0000       0.034277         0.9327
   7   0.0000       0.038147         1.0380
   8   0.0000       0.060579         1.6484

MULLIKEN ATOMIC CHARGES AND SPIN POPULATIONS
--------------------------------------------
   0 C :   -0.430605    1.102034
   1 H :    0.133820   -0.039824
   2 H :    0.153231   -0.029884
   3 H :    0.143554   -0.032326
Sum of atomic charges         :    0.0000000

LOEWDIN ATOMIC CHARGES AND SPIN POPULATIONS
-------------------------------------------
   0 C :   -0.137286    0.902715
   1 H :    0.083415    0.019264
   2 H :    0.027973    0.038840
   3 H :    0.025899    0.039181

  Mayer bond orders larger than 0.100000
B(  0-C ,  1-H ) :   0.9795 B(  0-C ,  2-H ) :   0.9785 B(  0-C ,  3-H ) :   0.9791

FINAL SINGLE POINT ENERGY       -39.820320989938

DIPOLE MOMENT
-------------
                                X             Y             Z
Electronic contribution:     -0.15912      -0.01116       0.08434
Nuclear contribution   :      0.15322      -0.00534      -0.10175
                        -----------------------------------------
Total Dipole Moment    :     -0.00591      -0.01650      -0.01741
                        -----------------------------------------
Magnitude (a.u.)       :      0.02471
Magnitude (Debye)      :      0.06280

Rotational constants in cm-1:    10.929883     8.697622     4.844184
Rotational constants in MHz : 327669.641655 260748.138664 145224.986615

                             ****ORCA TERMINATED NORMALLY****
TOTAL RUN TIME: 0 days 0 hours 0 minutes 18 seconds 725 msec
