                         Program Version 5.0.3 -  RELEASE  -
|  1> !B3LYP EPR-III Autoaux
|  2> !PAL4
|  3>
|  4> * xyz 0 2
|  5>  C    -60.6059475357    -83.0573428252    -25.8311731696
|  6>  H    -61.6944558881    -83.0755088191    -25.7841500567
|  7>  H    -60.0188431832    -83.9743192569    -25.9307805812
|  8>  H    -60.1409629260    -82.0571761086    -25.7244529686
|  9> *
| 10>
| 11> %EPRNMR
| 12>         GTENSOR   TRUE
| 13>         NUCLEI    = ALL H {AISO, ADIP, AORB}
| 14>         NUCLEI    = ALL C {AISO, ADIP, AORB}
| 15> END
| 16>
| 17>
| 18>                          ****END OF INPUT****

CARTESIAN COORDINATES (ANGSTROEM)
---------------------------------
  C    -60.605948  -83.057343  -25.831173
  H    -61.694456  -83.075509  -25.784150
  H    -60.018843  -83.974319  -25.930781
  H    -60.140963  -82.057176  -25.724453

 Total Charge           Charge          ....    0
 Multiplicity           Mult            ....    2
 Number of Electrons    NEL             ....    9
 Basis Dimension        Dim             ....   73

ORBITAL ENERGIES
----------------
                 SPIN UP ORBITALS
  NO   OCC          E(Eh)            E(eV)
   0   1.0000     -10.189259      -277.2638
   1   1.0000      -0.682935       -18.5836
   2   1.0000      -0.425914       -11.5897
   3   1.0000      -0.412412       -11.2223
   4   1.0000      -0.234764        -6.3882
   5   0.0000       0.000443         0.0121
   6   0.0000       0.035962         0.9786
   7   0.0000       0.037476         1.0198
   8   0.0000       0.047415         1.2902
   9   0.0000       0.087383         2.3778

                 SPIN DOWN ORBITALS
  NO   OCC          E(Eh)            E(eV)
   0   1.0000     -10.174733      -276.8686
   1   1.0000      -0.643291       -17.5048
   2   1.0000      -0.416709       -11.3392
   3   1.0000      -0.403049       -10.9675
   4   0.0000      -0.077142        -2.0991
   5   0.0000       0.003741         0.1018
   6   0.0000       0.035623         0.9693
   7   0.0000       0.037105         1.0097
   8   0.0000       0.060725         1.6524

MULLIKEN ATOMIC CHARGES AND SPIN POPULATIONS
--------------------------------------------
   0 C :   -0.426792    1.106157
   1 H :    0.140761   -0.035170
   2 H :    0.146020   -0.034673
   3 H :    0.140011   -0.036314
Sum of atomic charges         :   -0.0000000

LOEWDIN ATOMIC CHARGES AND SPIN POPULATIONS
-------------------------------------------
   0 C :   -0.164788    0.914915
   1 H :    0.051004    0.029646
   2 H :    0.054040    0.028825
   3 H :    0.059744    0.026614

  Mayer bond orders larger than 0.100000
B(  0-C ,  1-H ) :   0.9755 B(  0-C ,  2-H ) :   0.9743 B(  0-C ,  3-H ) :   0.9754

FINAL SINGLE POINT ENERGY       -39.827760486705

DIPOLE MOMENT
-------------
                                X             Y             Z
Electronic contribution:      0.02230      -0.04745      -0.02743
Nuclear contribution   :     -0.02730       0.04873       0.04057
                        -----------------------------------------
Total Dipole Moment    :     -0.00499       0.00129       0.01315
                        -----------------------------------------
Magnitude (a.u.)       :      0.01412
Magnitude (Debye)      :      0.03590

Rotational constants in cm-1:     9.707905     8.857646     4.633089
Rotational constants in MHz : 291035.658088 265545.539211 138896.510850

                             ****ORCA TERMINATED NORMALLY****
TOTAL RUN TIME: 0 days 0 hours 0 minutes 21 seconds 227 msec
