                         Program Version 5.0.3 -  RELEASE  -
|  1> !B3LYP EPR-III Autoaux
|  2> !PAL4
|  3>
|  4> * xyz 0 2
|  5>  C    -65.9007216457    -89.2556532994    -27.0682667900
|  6>  H    -65.8337120358    -88.1745574167    -26.9681292186
|  7>  H    -66.8783452385    -89.6005818201    -27.1196499560
|  8>  H    -64.9826743054    -89.8482364044    -27.0815641176
|  9> *
| 10>
| 11> %EPRNMR
| 12>         GTENSOR   TRUE
| 13>         NUCLEI    = ALL H {AISO, ADIP, AORB}
| 14>         NUCLEI    = ALL C {AISO, ADIP, AORB}
| 15> END
| 16>
| 17>
| 18>                          ****END OF INPUT****

CARTESIAN COORDINATES (ANGSTROEM)
---------------------------------
  C    -65.900722  -89.255653  -27.068267
  H    -65.833712  -88.174557  -26.968129
  H    -66.878345  -89.600582  -27.119650
  H    -64.982674  -89.848236  -27.081564

 Total Charge           Charge          ....    0
 Multiplicity           Mult            ....    2
 Number of Electrons    NEL             ....    9
 Basis Dimension        Dim             ....   73

ORBITAL ENERGIES
----------------
                 SPIN UP ORBITALS
  NO   OCC          E(Eh)            E(eV)
   0   1.0000     -10.181898      -277.0635
   1   1.0000      -0.690145       -18.7798
   2   1.0000      -0.436569       -11.8796
   3   1.0000      -0.411727       -11.2036
   4   1.0000      -0.234726        -6.3872
   5   0.0000       0.001186         0.0323
   6   0.0000       0.035428         0.9640
   7   0.0000       0.038056         1.0355
   8   0.0000       0.047527         1.2933
   9   0.0000       0.087868         2.3910

                 SPIN DOWN ORBITALS
  NO   OCC          E(Eh)            E(eV)
   0   1.0000     -10.167508      -276.6720
   1   1.0000      -0.650819       -17.7097
   2   1.0000      -0.427104       -11.6221
   3   1.0000      -0.402057       -10.9405
   4   0.0000      -0.077407        -2.1063
   5   0.0000       0.004257         0.1158
   6   0.0000       0.035067         0.9542
   7   0.0000       0.037627         1.0239
   8   0.0000       0.060763         1.6535

MULLIKEN ATOMIC CHARGES AND SPIN POPULATIONS
--------------------------------------------
   0 C :   -0.428605    1.102217
   1 H :    0.134895   -0.035471
   2 H :    0.146898   -0.032069
   3 H :    0.146813   -0.034677
Sum of atomic charges         :   -0.0000000

LOEWDIN ATOMIC CHARGES AND SPIN POPULATIONS
-------------------------------------------
   0 C :   -0.142887    0.904037
   1 H :    0.054074    0.029737
   2 H :    0.030005    0.037858
   3 H :    0.058808    0.028369

  Mayer bond orders larger than 0.100000
B(  0-C ,  1-H ) :   0.9798 B(  0-C ,  2-H ) :   0.9787 B(  0-C ,  3-H ) :   0.9773

FINAL SINGLE POINT ENERGY       -39.826086941486

DIPOLE MOMENT
-------------
                                X             Y             Z
Electronic contribution:     -0.01224      -0.09930      -0.01947
Nuclear contribution   :      0.00557       0.10761       0.02657
                        -----------------------------------------
Total Dipole Moment    :     -0.00667       0.00831       0.00711
                        -----------------------------------------
Magnitude (a.u.)       :      0.01281
Magnitude (Debye)      :      0.03256

Rotational constants in cm-1:    10.619712     8.901961     4.843030
Rotational constants in MHz : 318370.957816 266874.082202 145190.378867

                             ****ORCA TERMINATED NORMALLY****
TOTAL RUN TIME: 0 days 0 hours 0 minutes 18 seconds 940 msec
