                         Program Version 5.0.3 -  RELEASE  -
|  1> !B3LYP EPR-III Autoaux
|  2> !PAL4
|  3>
|  4> * xyz 0 2
|  5>  C    -60.8655131506    -83.3373361505    -25.8923838317
|  6>  H    -61.8891938180    -83.6606359734    -25.8772684843
|  7>  H    -60.0867825076    -84.1069929130    -25.9774213804
|  8>  H    -60.5746858643    -82.3186366894    -25.7940491836
|  9> *
| 10>
| 11> %EPRNMR
| 12>         GTENSOR   TRUE
| 13>         NUCLEI    = ALL H {AISO, ADIP, AORB}
| 14>         NUCLEI    = ALL C {AISO, ADIP, AORB}
| 15> END
| 16>
| 17>
| 18>                          ****END OF INPUT****

CARTESIAN COORDINATES (ANGSTROEM)
---------------------------------
  C    -60.865513  -83.337336  -25.892384
  H    -61.889194  -83.660636  -25.877268
  H    -60.086783  -84.106993  -25.977421
  H    -60.574686  -82.318637  -25.794049

 Total Charge           Charge          ....    0
 Multiplicity           Mult            ....    2
 Number of Electrons    NEL             ....    9
 Basis Dimension        Dim             ....   73

ORBITAL ENERGIES
----------------
                 SPIN UP ORBITALS
  NO   OCC          E(Eh)            E(eV)
   0   1.0000     -10.183666      -277.1116
   1   1.0000      -0.687904       -18.7188
   2   1.0000      -0.430348       -11.7104
   3   1.0000      -0.416138       -11.3237
   4   1.0000      -0.234685        -6.3861
   5   0.0000       0.001100         0.0299
   6   0.0000       0.036168         0.9842
   7   0.0000       0.037391         1.0175
   8   0.0000       0.047509         1.2928
   9   0.0000       0.090658         2.4669

                 SPIN DOWN ORBITALS
  NO   OCC          E(Eh)            E(eV)
   0   1.0000     -10.169250      -276.7194
   1   1.0000      -0.648457       -17.6454
   2   1.0000      -0.420836       -11.4515
   3   1.0000      -0.406708       -11.0671
   4   0.0000      -0.077312        -2.1038
   5   0.0000       0.004212         0.1146
   6   0.0000       0.035779         0.9736
   7   0.0000       0.036995         1.0067
   8   0.0000       0.060767         1.6535

MULLIKEN ATOMIC CHARGES AND SPIN POPULATIONS
--------------------------------------------
   0 C :   -0.426520    1.102541
   1 H :    0.143519   -0.033815
   2 H :    0.137856   -0.035675
   3 H :    0.145145   -0.033051
Sum of atomic charges         :    0.0000000

LOEWDIN ATOMIC CHARGES AND SPIN POPULATIONS
-------------------------------------------
   0 C :   -0.147982    0.906626
   1 H :    0.047254    0.031884
   2 H :    0.058201    0.028003
   3 H :    0.042527    0.033487

  Mayer bond orders larger than 0.100000
B(  0-C ,  1-H ) :   0.9775 B(  0-C ,  2-H ) :   0.9782 B(  0-C ,  3-H ) :   0.9774

FINAL SINGLE POINT ENERGY       -39.828375199100

DIPOLE MOMENT
-------------
                                X             Y             Z
Electronic contribution:     -0.03355       0.05373      -0.01107
Nuclear contribution   :      0.03438      -0.05565       0.02129
                        -----------------------------------------
Total Dipole Moment    :      0.00084      -0.00193       0.01023
                        -----------------------------------------
Magnitude (a.u.)       :      0.01044
Magnitude (Debye)      :      0.02654

Rotational constants in cm-1:     9.713019     9.455495     4.792246
Rotational constants in MHz : 291188.976609 283468.599422 143667.917453

                             ****ORCA TERMINATED NORMALLY****
TOTAL RUN TIME: 0 days 0 hours 0 minutes 23 seconds 899 msec
