                         Program Version 5.0.3 -  RELEASE  -
|  1> !B3LYP EPR-III Autoaux
|  2> !PAL4
|  3>
|  4> * xyz 0 2
|  5>  C      1.9264860574    -12.7100611544     -9.9022026298
|  6>  H      1.8767652153    -12.1680993668     -8.9241926422
|  7>  H      0.9620411499    -12.6014771084    -10.4846612057
|  8>  H      2.5999219916    -13.5480323567    -10.2142620936
|  9> *
| 10>
| 11> %EPRNMR
| 12>         GTENSOR   TRUE
| 13>         NUCLEI    = ALL H {AISO, ADIP, AORB}
| 14>         NUCLEI    = ALL C {AISO, ADIP, AORB}
| 15> END
| 16>
| 17>
| 18>                          ****END OF INPUT****

CARTESIAN COORDINATES (ANGSTROEM)
---------------------------------
  C      1.926486  -12.710061   -9.902203
  H      1.876765  -12.168099   -8.924193
  H      0.962041  -12.601477  -10.484661
  H      2.599922  -13.548032  -10.214262

 Total Charge           Charge          ....    0
 Multiplicity           Mult            ....    2
 Number of Electrons    NEL             ....    9
 Basis Dimension        Dim             ....   73

ORBITAL ENERGIES
----------------
                 SPIN UP ORBITALS
  NO   OCC          E(Eh)            E(eV)
   0   1.0000     -10.197707      -277.4937
   1   1.0000      -0.677086       -18.4245
   2   1.0000      -0.427212       -11.6250
   3   1.0000      -0.397250       -10.8097
   4   1.0000      -0.238154        -6.4805
   5   0.0000      -0.000867        -0.0236
   6   0.0000       0.035019         0.9529
   7   0.0000       0.038553         1.0491
   8   0.0000       0.047144         1.2829
   9   0.0000       0.078549         2.1374

                 SPIN DOWN ORBITALS
  NO   OCC          E(Eh)            E(eV)
   0   1.0000     -10.182947      -277.0921
   1   1.0000      -0.637713       -17.3531
   2   1.0000      -0.418152       -11.3785
   3   1.0000      -0.387769       -10.5517
   4   0.0000      -0.078841        -2.1454
   5   0.0000       0.002602         0.0708
   6   0.0000       0.034787         0.9466
   7   0.0000       0.038252         1.0409
   8   0.0000       0.060350         1.6422

MULLIKEN ATOMIC CHARGES AND SPIN POPULATIONS
--------------------------------------------
   0 C :   -0.424533    1.104627
   1 H :    0.145165   -0.034582
   2 H :    0.130935   -0.036369
   3 H :    0.148432   -0.033676
Sum of atomic charges         :    0.0000000

LOEWDIN ATOMIC CHARGES AND SPIN POPULATIONS
-------------------------------------------
   0 C :   -0.188190    0.925415
   1 H :    0.061802    0.025453
   2 H :    0.063759    0.023687
   3 H :    0.062630    0.025445

  Mayer bond orders larger than 0.100000
B(  0-C ,  1-H ) :   0.9713 B(  0-C ,  2-H ) :   0.9741 B(  0-C ,  3-H ) :   0.9702

FINAL SINGLE POINT ENERGY       -39.822490702424

DIPOLE MOMENT
-------------
                                X             Y             Z
Electronic contribution:      0.19859       0.07835      -0.02343
Nuclear contribution   :     -0.25537      -0.14047       0.06258
                        -----------------------------------------
Total Dipole Moment    :     -0.05678      -0.06212       0.03914
                        -----------------------------------------
Magnitude (a.u.)       :      0.09282
Magnitude (Debye)      :      0.23593

Rotational constants in cm-1:     9.718840     8.013470     4.465600
Rotational constants in MHz : 291363.501244 240237.778535 133875.321664

                             ****ORCA TERMINATED NORMALLY****
TOTAL RUN TIME: 0 days 0 hours 0 minutes 25 seconds 33 msec
