                         Program Version 5.0.3 -  RELEASE  -
|  1> !B3LYP EPR-III Autoaux
|  2> !PAL4
|  3>
|  4> * xyz 0 2
|  5>  C    -70.1170718223    -94.3364745952    -28.0251970723
|  6>  H    -69.6567726062    -95.3215009571    -28.0949052844
|  7>  H    -69.4589540709    -93.5422421724    -27.9149090362
|  8>  H    -71.2345851680    -94.1713771249    -28.0376761460
|  9> *
| 10>
| 11> %EPRNMR
| 12>         GTENSOR   TRUE
| 13>         NUCLEI    = ALL H {AISO, ADIP, AORB}
| 14>         NUCLEI    = ALL C {AISO, ADIP, AORB}
| 15> END
| 16>
| 17>
| 18>                          ****END OF INPUT****

CARTESIAN COORDINATES (ANGSTROEM)
---------------------------------
  C    -70.117072  -94.336475  -28.025197
  H    -69.656773  -95.321501  -28.094905
  H    -69.458954  -93.542242  -27.914909
  H    -71.234585  -94.171377  -28.037676

 Total Charge           Charge          ....    0
 Multiplicity           Mult            ....    2
 Number of Electrons    NEL             ....    9
 Basis Dimension        Dim             ....   73

ORBITAL ENERGIES
----------------
                 SPIN UP ORBITALS
  NO   OCC          E(Eh)            E(eV)
   0   1.0000     -10.185513      -277.1619
   1   1.0000      -0.687063       -18.6959
   2   1.0000      -0.423453       -11.5227
   3   1.0000      -0.419366       -11.4115
   4   1.0000      -0.234708        -6.3867
   5   0.0000       0.000695         0.0189
   6   0.0000       0.036201         0.9851
   7   0.0000       0.037249         1.0136
   8   0.0000       0.047470         1.2917
   9   0.0000       0.084547         2.3006

                 SPIN DOWN ORBITALS
  NO   OCC          E(Eh)            E(eV)
   0   1.0000     -10.171049      -276.7683
   1   1.0000      -0.647618       -17.6226
   2   1.0000      -0.413951       -11.2642
   3   1.0000      -0.409961       -11.1556
   4   0.0000      -0.077220        -2.1013
   5   0.0000       0.003906         0.1063
   6   0.0000       0.035885         0.9765
   7   0.0000       0.036842         1.0025
   8   0.0000       0.060746         1.6530

MULLIKEN ATOMIC CHARGES AND SPIN POPULATIONS
--------------------------------------------
   0 C :   -0.427845    1.104388
   1 H :    0.140852   -0.035125
   2 H :    0.144177   -0.031989
   3 H :    0.142817   -0.037274
Sum of atomic charges         :   -0.0000000

LOEWDIN ATOMIC CHARGES AND SPIN POPULATIONS
-------------------------------------------
   0 C :   -0.152657    0.909404
   1 H :    0.053754    0.029431
   2 H :    0.026381    0.038389
   3 H :    0.072522    0.022776

  Mayer bond orders larger than 0.100000
B(  0-C ,  1-H ) :   0.9772 B(  0-C ,  2-H ) :   0.9770 B(  0-C ,  3-H ) :   0.9755

FINAL SINGLE POINT ENERGY       -39.825463811165

DIPOLE MOMENT
-------------
                                X             Y             Z
Electronic contribution:      0.01192       0.02462      -0.01146
Nuclear contribution   :      0.00068      -0.01926       0.02106
                        -----------------------------------------
Total Dipole Moment    :      0.01259       0.00536       0.00960
                        -----------------------------------------
Magnitude (a.u.)       :      0.01672
Magnitude (Debye)      :      0.04249

Rotational constants in cm-1:    10.436749     8.633465     4.725581
Rotational constants in MHz : 312885.866059 258824.781102 141669.363638

                             ****ORCA TERMINATED NORMALLY****
TOTAL RUN TIME: 0 days 0 hours 0 minutes 34 seconds 156 msec
