                         Program Version 5.0.3 -  RELEASE  -
|  1> !B3LYP EPR-III Autoaux
|  2> !PAL4
|  3>
|  4> * xyz 0 2
|  5>  C    -72.2248566576    -96.9110361435    -28.5100578357
|  6>  H    -71.3723865057    -96.2067254108    -28.4492830431
|  7>  H    -73.2064732320    -96.4724257520    -28.5104528109
|  8>  H    -72.1721421118    -98.0201958223    -28.6093253295
|  9> *
| 10>
| 11> %EPRNMR
| 12>         GTENSOR   TRUE
| 13>         NUCLEI    = ALL H {AISO, ADIP, AORB}
| 14>         NUCLEI    = ALL C {AISO, ADIP, AORB}
| 15> END
| 16>
| 17>
| 18>                          ****END OF INPUT****

CARTESIAN COORDINATES (ANGSTROEM)
---------------------------------
  C    -72.224857  -96.911036  -28.510058
  H    -71.372387  -96.206725  -28.449283
  H    -73.206473  -96.472426  -28.510453
  H    -72.172142  -98.020196  -28.609325

 Total Charge           Charge          ....    0
 Multiplicity           Mult            ....    2
 Number of Electrons    NEL             ....    9
 Basis Dimension        Dim             ....   73

ORBITAL ENERGIES
----------------
                 SPIN UP ORBITALS
  NO   OCC          E(Eh)            E(eV)
   0   1.0000     -10.189784      -277.2781
   1   1.0000      -0.682756       -18.5787
   2   1.0000      -0.424786       -11.5590
   3   1.0000      -0.412110       -11.2141
   4   1.0000      -0.234744        -6.3877
   5   0.0000       0.000254         0.0069
   6   0.0000       0.035649         0.9701
   7   0.0000       0.037724         1.0265
   8   0.0000       0.047405         1.2900
   9   0.0000       0.082618         2.2481

                 SPIN DOWN ORBITALS
  NO   OCC          E(Eh)            E(eV)
   0   1.0000     -10.175244      -276.8825
   1   1.0000      -0.643137       -17.5006
   2   1.0000      -0.415832       -11.3154
   3   1.0000      -0.402482       -10.9521
   4   0.0000      -0.077103        -2.0981
   5   0.0000       0.003594         0.0978
   6   0.0000       0.035338         0.9616
   7   0.0000       0.037343         1.0162
   8   0.0000       0.060722         1.6523

MULLIKEN ATOMIC CHARGES AND SPIN POPULATIONS
--------------------------------------------
   0 C :   -0.428073    1.107001
   1 H :    0.144728   -0.036009
   2 H :    0.138732   -0.034498
   3 H :    0.144614   -0.036494
Sum of atomic charges         :   -0.0000000

LOEWDIN ATOMIC CHARGES AND SPIN POPULATIONS
-------------------------------------------
   0 C :   -0.166889    0.915852
   1 H :    0.060343    0.026560
   2 H :    0.042818    0.032239
   3 H :    0.063727    0.025350

  Mayer bond orders larger than 0.100000
B(  0-C ,  1-H ) :   0.9743 B(  0-C ,  2-H ) :   0.9758 B(  0-C ,  3-H ) :   0.9741

FINAL SINGLE POINT ENERGY       -39.826494723733

DIPOLE MOMENT
-------------
                                X             Y             Z
Electronic contribution:      0.04351      -0.01748       0.01838
Nuclear contribution   :     -0.05728       0.02530      -0.02915
                        -----------------------------------------
Total Dipole Moment    :     -0.01377       0.00782      -0.01077
                        -----------------------------------------
Magnitude (a.u.)       :      0.01915
Magnitude (Debye)      :      0.04868

Rotational constants in cm-1:    10.151611     8.456161     4.614391
Rotational constants in MHz : 304337.647081 253509.315728 138335.974717

                             ****ORCA TERMINATED NORMALLY****
TOTAL RUN TIME: 0 days 0 hours 0 minutes 18 seconds 133 msec
