                         Program Version 5.0.3 -  RELEASE  -
|  1> !B3LYP EPR-III Autoaux
|  2> !PAL4
|  3>
|  4> * xyz 0 2
|  5>  C      5.1418792180     -9.0543016900     -9.0642338979
|  6>  H      4.7033923651     -9.7027876061     -9.8773617246
|  7>  H      5.6558733389     -9.4011468056     -8.2330223799
|  8>  H      4.8174868442     -8.0181318088     -9.0836886468
|  9> *
| 10>
| 11> %EPRNMR
| 12>         GTENSOR   TRUE
| 13>         NUCLEI    = ALL H {AISO, ADIP, AORB}
| 14>         NUCLEI    = ALL C {AISO, ADIP, AORB}
| 15> END
| 16>
| 17>
| 18>                          ****END OF INPUT****

CARTESIAN COORDINATES (ANGSTROEM)
---------------------------------
  C      5.141879   -9.054302   -9.064234
  H      4.703392   -9.702788   -9.877362
  H      5.655873   -9.401147   -8.233022
  H      4.817487   -8.018132   -9.083689

 Total Charge           Charge          ....    0
 Multiplicity           Mult            ....    2
 Number of Electrons    NEL             ....    9
 Basis Dimension        Dim             ....   73

ORBITAL ENERGIES
----------------
                 SPIN UP ORBITALS
  NO   OCC          E(Eh)            E(eV)
   0   1.0000     -10.185379      -277.1582
   1   1.0000      -0.687580       -18.7100
   2   1.0000      -0.434081       -11.8119
   3   1.0000      -0.409117       -11.1326
   4   1.0000      -0.235940        -6.4202
   5   0.0000       0.000775         0.0211
   6   0.0000       0.035654         0.9702
   7   0.0000       0.037931         1.0322
   8   0.0000       0.047438         1.2908
   9   0.0000       0.085092         2.3155

                 SPIN DOWN ORBITALS
  NO   OCC          E(Eh)            E(eV)
   0   1.0000     -10.170895      -276.7641
   1   1.0000      -0.648290       -17.6409
   2   1.0000      -0.424466       -11.5503
   3   1.0000      -0.399706       -10.8765
   4   0.0000      -0.077938        -2.1208
   5   0.0000       0.003906         0.1063
   6   0.0000       0.035312         0.9609
   7   0.0000       0.037559         1.0220
   8   0.0000       0.060656         1.6505

MULLIKEN ATOMIC CHARGES AND SPIN POPULATIONS
--------------------------------------------
   0 C :   -0.425973    1.101741
   1 H :    0.139679   -0.036849
   2 H :    0.149182   -0.030415
   3 H :    0.137112   -0.034476
Sum of atomic charges         :   -0.0000000

LOEWDIN ATOMIC CHARGES AND SPIN POPULATIONS
-------------------------------------------
   0 C :   -0.150864    0.908447
   1 H :    0.071733    0.023171
   2 H :    0.027698    0.038217
   3 H :    0.051433    0.030165

  Mayer bond orders larger than 0.100000
B(  0-C ,  1-H ) :   0.9767 B(  0-C ,  2-H ) :   0.9769 B(  0-C ,  3-H ) :   0.9780

FINAL SINGLE POINT ENERGY       -39.825284370323

DIPOLE MOMENT
-------------
                                X             Y             Z
Electronic contribution:      0.13914      -0.03095       0.03258
Nuclear contribution   :     -0.18653       0.03061      -0.00103
                        -----------------------------------------
Total Dipole Moment    :     -0.04740      -0.00034       0.03155
                        -----------------------------------------
Magnitude (a.u.)       :      0.05694
Magnitude (Debye)      :      0.14473

Rotational constants in cm-1:    10.059380     8.931726     4.759435
Rotational constants in MHz : 301572.635111 267766.413759 142684.265366

                             ****ORCA TERMINATED NORMALLY****
TOTAL RUN TIME: 0 days 0 hours 0 minutes 21 seconds 895 msec
