                         Program Version 5.0.3 -  RELEASE  -
|  1> !B3LYP EPR-III Autoaux
|  2> !PAL4
|  3>
|  4> * xyz 0 2
|  5>  C     -3.6041368170    -19.0073429673    -11.3224194539
|  6>  H     -3.7618567727    -18.2087601158    -10.5286663890
|  7>  H     -4.2579249990    -19.3065094056    -12.0816581229
|  8>  H     -2.6109759258    -19.4077675658    -11.2591978335
|  9> *
| 10>
| 11> %EPRNMR
| 12>         GTENSOR   TRUE
| 13>         NUCLEI    = ALL H {AISO, ADIP, AORB}
| 14>         NUCLEI    = ALL C {AISO, ADIP, AORB}
| 15> END
| 16>
| 17>
| 18>                          ****END OF INPUT****

CARTESIAN COORDINATES (ANGSTROEM)
---------------------------------
  C     -3.604137  -19.007343  -11.322419
  H     -3.761857  -18.208760  -10.528666
  H     -4.257925  -19.306509  -12.081658
  H     -2.610976  -19.407768  -11.259198

 Total Charge           Charge          ....    0
 Multiplicity           Mult            ....    2
 Number of Electrons    NEL             ....    9
 Basis Dimension        Dim             ....   73

ORBITAL ENERGIES
----------------
                 SPIN UP ORBITALS
  NO   OCC          E(Eh)            E(eV)
   0   1.0000     -10.185698      -277.1669
   1   1.0000      -0.687347       -18.7037
   2   1.0000      -0.439661       -11.9638
   3   1.0000      -0.403240       -10.9727
   4   1.0000      -0.235083        -6.3969
   5   0.0000       0.000683         0.0186
   6   0.0000       0.034790         0.9467
   7   0.0000       0.038511         1.0479
   8   0.0000       0.047442         1.2910
   9   0.0000       0.082291         2.2393

                 SPIN DOWN ORBITALS
  NO   OCC          E(Eh)            E(eV)
   0   1.0000     -10.171225      -276.7731
   1   1.0000      -0.647890       -17.6300
   2   1.0000      -0.430261       -11.7080
   3   1.0000      -0.393744       -10.7143
   4   0.0000      -0.077472        -2.1081
   5   0.0000       0.003874         0.1054
   6   0.0000       0.034462         0.9378
   7   0.0000       0.038124         1.0374
   8   0.0000       0.060697         1.6516

MULLIKEN ATOMIC CHARGES AND SPIN POPULATIONS
--------------------------------------------
   0 C :   -0.429307    1.104603
   1 H :    0.139258   -0.038832
   2 H :    0.152334   -0.031074
   3 H :    0.137715   -0.034697
Sum of atomic charges         :   -0.0000000

LOEWDIN ATOMIC CHARGES AND SPIN POPULATIONS
-------------------------------------------
   0 C :   -0.152607    0.909356
   1 H :    0.075106    0.021725
   2 H :    0.033020    0.036549
   3 H :    0.044481    0.032370

  Mayer bond orders larger than 0.100000
B(  0-C ,  1-H ) :   0.9770 B(  0-C ,  2-H ) :   0.9765 B(  0-C ,  3-H ) :   0.9780

FINAL SINGLE POINT ENERGY       -39.823986204574

DIPOLE MOMENT
-------------
                                X             Y             Z
Electronic contribution:     -0.11142      -0.06682      -0.08466
Nuclear contribution   :      0.13615       0.07419       0.07325
                        -----------------------------------------
Total Dipole Moment    :      0.02473       0.00737      -0.01141
                        -----------------------------------------
Magnitude (a.u.)       :      0.02822
Magnitude (Debye)      :      0.07172

Rotational constants in cm-1:    10.519710     8.598787     4.735231
Rotational constants in MHz : 315372.959058 257785.135967 141958.644511

                             ****ORCA TERMINATED NORMALLY****
TOTAL RUN TIME: 0 days 0 hours 0 minutes 26 seconds 324 msec
