                         Program Version 5.0.3 -  RELEASE  -
|  1> !B3LYP EPR-III Autoaux
|  2> !PAL4
|  3>
|  4> * xyz 0 2
|  5>  C    -11.3196775250    -27.7797320629    -13.3275294286
|  6>  H    -12.2822815300    -27.9200133071    -13.0868334576
|  7>  H    -10.4313914459    -28.3287512000    -12.9628371733
|  8>  H    -11.1400309763    -26.8488930576    -13.8799043325
|  9> *
| 10>
| 11> %EPRNMR
| 12>         GTENSOR   TRUE
| 13>         NUCLEI    = ALL H {AISO, ADIP, AORB}
| 14>         NUCLEI    = ALL C {AISO, ADIP, AORB}
| 15> END
| 16>
| 17>
| 18>                          ****END OF INPUT****

CARTESIAN COORDINATES (ANGSTROEM)
---------------------------------
  C    -11.319678  -27.779732  -13.327529
  H    -12.282282  -27.920013  -13.086833
  H    -10.431391  -28.328751  -12.962837
  H    -11.140031  -26.848893  -13.879904

 Total Charge           Charge          ....    0
 Multiplicity           Mult            ....    2
 Number of Electrons    NEL             ....    9
 Basis Dimension        Dim             ....   73

ORBITAL ENERGIES
----------------
                 SPIN UP ORBITALS
  NO   OCC          E(Eh)            E(eV)
   0   1.0000     -10.180618      -277.0287
   1   1.0000      -0.692660       -18.8482
   2   1.0000      -0.440785       -11.9944
   3   1.0000      -0.408654       -11.1200
   4   1.0000      -0.235858        -6.4180
   5   0.0000       0.001179         0.0321
   6   0.0000       0.035291         0.9603
   7   0.0000       0.038278         1.0416
   8   0.0000       0.047506         1.2927
   9   0.0000       0.086725         2.3599

                 SPIN DOWN ORBITALS
  NO   OCC          E(Eh)            E(eV)
   0   1.0000     -10.166217      -276.6368
   1   1.0000      -0.653568       -17.7845
   2   1.0000      -0.430992       -11.7279
   3   1.0000      -0.399043       -10.8585
   4   0.0000      -0.078062        -2.1242
   5   0.0000       0.004186         0.1139
   6   0.0000       0.034947         0.9510
   7   0.0000       0.037863         1.0303
   8   0.0000       0.060681         1.6512

MULLIKEN ATOMIC CHARGES AND SPIN POPULATIONS
--------------------------------------------
   0 C :   -0.428205    1.099888
   1 H :    0.151076   -0.029274
   2 H :    0.145196   -0.035058
   3 H :    0.131934   -0.035556
Sum of atomic charges         :    0.0000000

LOEWDIN ATOMIC CHARGES AND SPIN POPULATIONS
-------------------------------------------
   0 C :   -0.135957    0.901402
   1 H :    0.010503    0.044159
   2 H :    0.066032    0.026237
   3 H :    0.059422    0.028201

  Mayer bond orders larger than 0.100000
B(  0-C ,  1-H ) :   0.9792 B(  0-C ,  2-H ) :   0.9779 B(  0-C ,  3-H ) :   0.9809

FINAL SINGLE POINT ENERGY       -39.821926026722

DIPOLE MOMENT
-------------
                                X             Y             Z
Electronic contribution:     -0.08097      -0.14451      -0.00074
Nuclear contribution   :      0.07894       0.18103       0.03973
                        -----------------------------------------
Total Dipole Moment    :     -0.00202       0.03651       0.03899
                        -----------------------------------------
Magnitude (a.u.)       :      0.05345
Magnitude (Debye)      :      0.13587

Rotational constants in cm-1:    10.733541     8.907462     4.893160
Rotational constants in MHz : 321783.476214 267038.985258 146693.237777

                             ****ORCA TERMINATED NORMALLY****
TOTAL RUN TIME: 0 days 0 hours 0 minutes 18 seconds 980 msec
