                         Program Version 5.0.3 -  RELEASE  -
|  1> !B3LYP EPR-III Autoaux
|  2> !PAL4
|  3>
|  4> * xyz 0 2
|  5>  C    -23.2662578379    -41.2027842840    -16.4043187647
|  6>  H    -22.2107893393    -40.8994694430    -16.2591286011
|  7>  H    -24.0545530176    -40.4950146717    -16.1298604493
|  8>  H    -23.4111991812    -42.2070563410    -16.7953064922
|  9> *
| 10>
| 11> %EPRNMR
| 12>         GTENSOR   TRUE
| 13>         NUCLEI    = ALL H {AISO, ADIP, AORB}
| 14>         NUCLEI    = ALL C {AISO, ADIP, AORB}
| 15> END
| 16>
| 17>
| 18>                          ****END OF INPUT****

CARTESIAN COORDINATES (ANGSTROEM)
---------------------------------
  C    -23.266258  -41.202784  -16.404319
  H    -22.210789  -40.899469  -16.259129
  H    -24.054553  -40.495015  -16.129860
  H    -23.411199  -42.207056  -16.795306

 Total Charge           Charge          ....    0
 Multiplicity           Mult            ....    2
 Number of Electrons    NEL             ....    9
 Basis Dimension        Dim             ....   73

ORBITAL ENERGIES
----------------
                 SPIN UP ORBITALS
  NO   OCC          E(Eh)            E(eV)
   0   1.0000     -10.189131      -277.2604
   1   1.0000      -0.683161       -18.5897
   2   1.0000      -0.429250       -11.6805
   3   1.0000      -0.409219       -11.1354
   4   1.0000      -0.234760        -6.3881
   5   0.0000       0.000455         0.0124
   6   0.0000       0.035610         0.9690
   7   0.0000       0.037785         1.0282
   8   0.0000       0.047415         1.2902
   9   0.0000       0.085992         2.3400

                 SPIN DOWN ORBITALS
  NO   OCC          E(Eh)            E(eV)
   0   1.0000     -10.174608      -276.8652
   1   1.0000      -0.643524       -17.5112
   2   1.0000      -0.420056       -11.4303
   3   1.0000      -0.399829       -10.8799
   4   0.0000      -0.077151        -2.0994
   5   0.0000       0.003748         0.1020
   6   0.0000       0.035274         0.9598
   7   0.0000       0.037410         1.0180
   8   0.0000       0.060722         1.6523

MULLIKEN ATOMIC CHARGES AND SPIN POPULATIONS
--------------------------------------------
   0 C :   -0.427417    1.106324
   1 H :    0.136023   -0.036547
   2 H :    0.146614   -0.034907
   3 H :    0.144780   -0.034869
Sum of atomic charges         :    0.0000000

LOEWDIN ATOMIC CHARGES AND SPIN POPULATIONS
-------------------------------------------
   0 C :   -0.164488    0.914720
   1 H :    0.058737    0.026827
   2 H :    0.054797    0.028606
   3 H :    0.050954    0.029846

  Mayer bond orders larger than 0.100000
B(  0-C ,  1-H ) :   0.9763 B(  0-C ,  2-H ) :   0.9744 B(  0-C ,  3-H ) :   0.9750

FINAL SINGLE POINT ENERGY       -39.827384776905

DIPOLE MOMENT
-------------
                                X             Y             Z
Electronic contribution:     -0.08480      -0.00781      -0.01577
Nuclear contribution   :      0.09161       0.00511       0.02148
                        -----------------------------------------
Total Dipole Moment    :      0.00681      -0.00270       0.00571
                        -----------------------------------------
Magnitude (a.u.)       :      0.00929
Magnitude (Debye)      :      0.02361

Rotational constants in cm-1:     9.819964     8.787064     4.637762
Rotational constants in MHz : 294395.116296 263429.558062 139036.598527

                             ****ORCA TERMINATED NORMALLY****
TOTAL RUN TIME: 0 days 0 hours 0 minutes 31 seconds 960 msec
