                         Program Version 5.0.3 -  RELEASE  -
|  1> !B3LYP EPR-III Autoaux
|  2> !PAL4
|  3>
|  4> * xyz 0 2
|  5>  C    -68.7295083114    -92.6512436750    -27.7118517529
|  6>  H    -69.5598426107    -93.3415992189    -27.7641863474
|  7>  H    -67.5715068929    -92.9030202602    -27.7017667071
|  8>  H    -68.9689699470    -91.6329269928    -27.6249740420
|  9> *
| 10>
| 11> %EPRNMR
| 12>         GTENSOR   TRUE
| 13>         NUCLEI    = ALL H {AISO, ADIP, AORB}
| 14>         NUCLEI    = ALL C {AISO, ADIP, AORB}
| 15> END
| 16>
| 17>
| 18>                          ****END OF INPUT****

CARTESIAN COORDINATES (ANGSTROEM)
---------------------------------
  C    -68.729508  -92.651244  -27.711852
  H    -69.559843  -93.341599  -27.764186
  H    -67.571507  -92.903020  -27.701767
  H    -68.968970  -91.632927  -27.624974

 Total Charge           Charge          ....    0
 Multiplicity           Mult            ....    2
 Number of Electrons    NEL             ....    9
 Basis Dimension        Dim             ....   73

ORBITAL ENERGIES
----------------
                 SPIN UP ORBITALS
  NO   OCC          E(Eh)            E(eV)
   0   1.0000     -10.191151      -277.3153
   1   1.0000      -0.683114       -18.5885
   2   1.0000      -0.426155       -11.5963
   3   1.0000      -0.407635       -11.0923
   4   1.0000      -0.234945        -6.3932
   5   0.0000      -0.000440        -0.0120
   6   0.0000       0.035311         0.9609
   7   0.0000       0.037760         1.0275
   8   0.0000       0.047347         1.2884
   9   0.0000       0.075591         2.0569

                 SPIN DOWN ORBITALS
  NO   OCC          E(Eh)            E(eV)
   0   1.0000     -10.176553      -276.9181
   1   1.0000      -0.643497       -17.5105
   2   1.0000      -0.416862       -11.3434
   3   1.0000      -0.398324       -10.8390
   4   0.0000      -0.077103        -2.0981
   5   0.0000       0.003055         0.0831
   6   0.0000       0.035075         0.9544
   7   0.0000       0.037437         1.0187
   8   0.0000       0.060670         1.6509

MULLIKEN ATOMIC CHARGES AND SPIN POPULATIONS
--------------------------------------------
   0 C :   -0.429120    1.108975
   1 H :    0.147567   -0.034159
   2 H :    0.140398   -0.041712
   3 H :    0.141155   -0.033104
Sum of atomic charges         :   -0.0000000

LOEWDIN ATOMIC CHARGES AND SPIN POPULATIONS
-------------------------------------------
   0 C :   -0.167688    0.917852
   1 H :    0.047705    0.030955
   2 H :    0.091110    0.014520
   3 H :    0.028873    0.036674

  Mayer bond orders larger than 0.100000
B(  0-C ,  1-H ) :   0.9740 B(  0-C ,  2-H ) :   0.9725 B(  0-C ,  3-H ) :   0.9749

FINAL SINGLE POINT ENERGY       -39.820647418886

DIPOLE MOMENT
-------------
                                X             Y             Z
Electronic contribution:     -0.07960      -0.03507      -0.02153
Nuclear contribution   :      0.06611       0.05710       0.03345
                        -----------------------------------------
Total Dipole Moment    :     -0.01349       0.02203       0.01191
                        -----------------------------------------
Magnitude (a.u.)       :      0.02844
Magnitude (Debye)      :      0.07229

Rotational constants in cm-1:    10.563300     7.997146     4.552334
Rotational constants in MHz : 316679.753327 239748.420412 136475.553284

                             ****ORCA TERMINATED NORMALLY****
TOTAL RUN TIME: 0 days 0 hours 0 minutes 20 seconds 774 msec
