                         Program Version 5.0.3 -  RELEASE  -
|  1> !B3LYP EPR-III Autoaux
|  2> !PAL4
|  3>
|  4> * xyz 0 2
|  5>  C    -30.9144697016    -49.8527433640    -18.3487652124
|  6>  H    -31.0725247398    -48.8646476472    -18.4559850282
|  7>  H    -31.8671527512    -50.4510018597    -18.2345764784
|  8>  H    -29.9266544741    -50.1867164320    -18.4553276988
|  9> *
| 10>
| 11> %EPRNMR
| 12>         GTENSOR   TRUE
| 13>         NUCLEI    = ALL H {AISO, ADIP, AORB}
| 14>         NUCLEI    = ALL C {AISO, ADIP, AORB}
| 15> END
| 16>
| 17>
| 18>                          ****END OF INPUT****

CARTESIAN COORDINATES (ANGSTROEM)
---------------------------------
  C    -30.914470  -49.852743  -18.348765
  H    -31.072525  -48.864648  -18.455985
  H    -31.867153  -50.451002  -18.234576
  H    -29.926654  -50.186716  -18.455328

 Total Charge           Charge          ....    0
 Multiplicity           Mult            ....    2
 Number of Electrons    NEL             ....    9
 Basis Dimension        Dim             ....   73

ORBITAL ENERGIES
----------------
                 SPIN UP ORBITALS
  NO   OCC          E(Eh)            E(eV)
   0   1.0000     -10.178112      -276.9605
   1   1.0000      -0.694917       -18.9097
   2   1.0000      -0.436974       -11.8907
   3   1.0000      -0.414998       -11.2927
   4   1.0000      -0.235052        -6.3961
   5   0.0000       0.001207         0.0329
   6   0.0000       0.035316         0.9610
   7   0.0000       0.038177         1.0389
   8   0.0000       0.047562         1.2942
   9   0.0000       0.082694         2.2502

                 SPIN DOWN ORBITALS
  NO   OCC          E(Eh)            E(eV)
   0   1.0000     -10.163763      -276.5700
   1   1.0000      -0.655866       -17.8470
   2   1.0000      -0.427416       -11.6306
   3   1.0000      -0.404996       -11.0205
   4   0.0000      -0.077663        -2.1133
   5   0.0000       0.004221         0.1149
   6   0.0000       0.034963         0.9514
   7   0.0000       0.037752         1.0273
   8   0.0000       0.060753         1.6532

MULLIKEN ATOMIC CHARGES AND SPIN POPULATIONS
--------------------------------------------
   0 C :   -0.431005    1.100476
   1 H :    0.142075   -0.030782
   2 H :    0.140749   -0.037880
   3 H :    0.148181   -0.031813
Sum of atomic charges         :   -0.0000000

LOEWDIN ATOMIC CHARGES AND SPIN POPULATIONS
-------------------------------------------
   0 C :   -0.130068    0.898461
   1 H :    0.013158    0.043578
   2 H :    0.077637    0.022265
   3 H :    0.039274    0.035696

  Mayer bond orders larger than 0.100000
B(  0-C ,  1-H ) :   0.9800 B(  0-C ,  2-H ) :   0.9794 B(  0-C ,  3-H ) :   0.9803

FINAL SINGLE POINT ENERGY       -39.820351552991

DIPOLE MOMENT
-------------
                                X             Y             Z
Electronic contribution:      0.08804      -0.01458       0.04163
Nuclear contribution   :     -0.09213       0.04187      -0.07464
                        -----------------------------------------
Total Dipole Moment    :     -0.00408       0.02729      -0.03302
                        -----------------------------------------
Magnitude (a.u.)       :      0.04303
Magnitude (Debye)      :      0.10938

Rotational constants in cm-1:    11.609440     8.573662     4.940345
Rotational constants in MHz : 348042.259724 257031.910800 148107.825137

                             ****ORCA TERMINATED NORMALLY****
TOTAL RUN TIME: 0 days 0 hours 0 minutes 25 seconds 738 msec
