                         Program Version 5.0.3 -  RELEASE  -
|  1> !B3LYP EPR-III Autoaux
|  2> !PAL4
|  3>
|  4> * xyz 0 2
|  5>  C      5.4987458143     -8.6035290010     -8.9615845908
|  6>  H      4.4869942202     -8.4460164061     -9.2474574314
|  7>  H      5.7057617436     -9.3805217415     -8.1561103306
|  8>  H      6.3758593847     -8.2492642293     -9.5356642739
|  9> *
| 10>
| 11> %EPRNMR
| 12>         GTENSOR   TRUE
| 13>         NUCLEI    = ALL H {AISO, ADIP, AORB}
| 14>         NUCLEI    = ALL C {AISO, ADIP, AORB}
| 15> END
| 16>
| 17>
| 18>                          ****END OF INPUT****

CARTESIAN COORDINATES (ANGSTROEM)
---------------------------------
  C      5.498746   -8.603529   -8.961585
  H      4.486994   -8.446016   -9.247457
  H      5.705762   -9.380522   -8.156110
  H      6.375859   -8.249264   -9.535664

 Total Charge           Charge          ....    0
 Multiplicity           Mult            ....    2
 Number of Electrons    NEL             ....    9
 Basis Dimension        Dim             ....   73

ORBITAL ENERGIES
----------------
                 SPIN UP ORBITALS
  NO   OCC          E(Eh)            E(eV)
   0   1.0000     -10.191407      -277.3223
   1   1.0000      -0.682368       -18.5682
   2   1.0000      -0.429624       -11.6907
   3   1.0000      -0.405738       -11.0407
   4   1.0000      -0.236501        -6.4355
   5   0.0000       0.000076         0.0021
   6   0.0000       0.035764         0.9732
   7   0.0000       0.037744         1.0271
   8   0.0000       0.047230         1.2852
   9   0.0000       0.085532         2.3275

                 SPIN DOWN ORBITALS
  NO   OCC          E(Eh)            E(eV)
   0   1.0000     -10.176846      -276.9261
   1   1.0000      -0.642966       -17.4960
   2   1.0000      -0.420191       -11.4340
   3   1.0000      -0.396558       -10.7909
   4   0.0000      -0.078165        -2.1270
   5   0.0000       0.003368         0.0917
   6   0.0000       0.035414         0.9637
   7   0.0000       0.037403         1.0178
   8   0.0000       0.060471         1.6455

MULLIKEN ATOMIC CHARGES AND SPIN POPULATIONS
--------------------------------------------
   0 C :   -0.424971    1.103414
   1 H :    0.147443   -0.031718
   2 H :    0.134177   -0.037074
   3 H :    0.143351   -0.034622
Sum of atomic charges         :    0.0000000

LOEWDIN ATOMIC CHARGES AND SPIN POPULATIONS
-------------------------------------------
   0 C :   -0.167846    0.916447
   1 H :    0.037918    0.034152
   2 H :    0.070924    0.022354
   3 H :    0.059004    0.027047

  Mayer bond orders larger than 0.100000
B(  0-C ,  1-H ) :   0.9741 B(  0-C ,  2-H ) :   0.9756 B(  0-C ,  3-H ) :   0.9741

FINAL SINGLE POINT ENERGY       -39.825584006583

DIPOLE MOMENT
-------------
                                X             Y             Z
Electronic contribution:     -0.05713       0.14911      -0.00102
Nuclear contribution   :      0.05425      -0.19877      -0.04083
                        -----------------------------------------
Total Dipole Moment    :     -0.00288      -0.04966      -0.04185
                        -----------------------------------------
Magnitude (a.u.)       :      0.06501
Magnitude (Debye)      :      0.16525

Rotational constants in cm-1:     9.331487     8.955478     4.607503
Rotational constants in MHz : 279750.929814 268478.462969 138129.468232

                             ****ORCA TERMINATED NORMALLY****
TOTAL RUN TIME: 0 days 0 hours 0 minutes 21 seconds 85 msec
