                         Program Version 5.0.3 -  RELEASE  -
|  1> !B3LYP EPR-III Autoaux
|  2> !PAL4
|  3>
|  4> * xyz 0 2
|  5>  C    -20.6498480634    -38.2461573075    -15.7218412853
|  6>  H    -21.5258005247    -39.0086507056    -15.8072577133
|  7>  H    -19.6836376986    -38.5743761086    -16.0959513572
|  8>  H    -20.6577330677    -37.2308689146    -15.3205861691
|  9> *
| 10>
| 11> %EPRNMR
| 12>         GTENSOR   TRUE
| 13>         NUCLEI    = ALL H {AISO, ADIP, AORB}
| 14>         NUCLEI    = ALL C {AISO, ADIP, AORB}
| 15> END
| 16>
| 17>
| 18>                          ****END OF INPUT****

CARTESIAN COORDINATES (ANGSTROEM)
---------------------------------
  C    -20.649848  -38.246157  -15.721841
  H    -21.525801  -39.008651  -15.807258
  H    -19.683638  -38.574376  -16.095951
  H    -20.657733  -37.230869  -15.320586

 Total Charge           Charge          ....    0
 Multiplicity           Mult            ....    2
 Number of Electrons    NEL             ....    9
 Basis Dimension        Dim             ....   73

ORBITAL ENERGIES
----------------
                 SPIN UP ORBITALS
  NO   OCC          E(Eh)            E(eV)
   0   1.0000     -10.194118      -277.3961
   1   1.0000      -0.679555       -18.4916
   2   1.0000      -0.423948       -11.5362
   3   1.0000      -0.406019       -11.0483
   4   1.0000      -0.234843        -6.3904
   5   0.0000      -0.000606        -0.0165
   6   0.0000       0.035131         0.9560
   7   0.0000       0.037970         1.0332
   8   0.0000       0.047316         1.2875
   9   0.0000       0.076589         2.0841

                 SPIN DOWN ORBITALS
  NO   OCC          E(Eh)            E(eV)
   0   1.0000     -10.179477      -276.9977
   1   1.0000      -0.639795       -17.4097
   2   1.0000      -0.415089       -11.2951
   3   1.0000      -0.396536       -10.7903
   4   0.0000      -0.076970        -2.0945
   5   0.0000       0.002959         0.0805
   6   0.0000       0.034900         0.9497
   7   0.0000       0.037621         1.0237
   8   0.0000       0.060675         1.6511

MULLIKEN ATOMIC CHARGES AND SPIN POPULATIONS
--------------------------------------------
   0 C :   -0.429594    1.110616
   1 H :    0.145005   -0.040041
   2 H :    0.137201   -0.035419
   3 H :    0.147388   -0.035157
Sum of atomic charges         :    0.0000000

LOEWDIN ATOMIC CHARGES AND SPIN POPULATIONS
-------------------------------------------
   0 C :   -0.179116    0.922428
   1 H :    0.082645    0.017654
   2 H :    0.045628    0.030574
   3 H :    0.050843    0.029344

  Mayer bond orders larger than 0.100000
B(  0-C ,  1-H ) :   0.9707 B(  0-C ,  2-H ) :   0.9742 B(  0-C ,  3-H ) :   0.9725

FINAL SINGLE POINT ENERGY       -39.822739945320

DIPOLE MOMENT
-------------
                                X             Y             Z
Electronic contribution:     -0.04250       0.05591       0.03646
Nuclear contribution   :      0.06174      -0.05653      -0.04367
                        -----------------------------------------
Total Dipole Moment    :      0.01924      -0.00062      -0.00721
                        -----------------------------------------
Magnitude (a.u.)       :      0.02056
Magnitude (Debye)      :      0.05225

Rotational constants in cm-1:    10.232353     7.987888     4.485971
Rotational constants in MHz : 306758.239204 239470.845937 134486.028052

                             ****ORCA TERMINATED NORMALLY****
TOTAL RUN TIME: 0 days 0 hours 0 minutes 17 seconds 743 msec
