                         Program Version 5.0.3 -  RELEASE  -
|  1> !B3LYP EPR-III Autoaux
|  2> !PAL4
|  3>
|  4> * xyz 0 2
|  5>  C      4.6982262285     -9.5379177290     -9.1763318492
|  6>  H      5.1015404228     -9.7660542497    -10.1506734015
|  7>  H      5.2089293908     -9.0045498985     -8.3947374131
|  8>  H      3.6999835699     -9.9351707060     -9.0023297124
|  9> *
| 10>
| 11> %EPRNMR
| 12>         GTENSOR   TRUE
| 13>         NUCLEI    = ALL H {AISO, ADIP, AORB}
| 14>         NUCLEI    = ALL C {AISO, ADIP, AORB}
| 15> END
| 16>
| 17>
| 18>                          ****END OF INPUT****

CARTESIAN COORDINATES (ANGSTROEM)
---------------------------------
  C      4.698226   -9.537918   -9.176332
  H      5.101540   -9.766054  -10.150673
  H      5.208929   -9.004550   -8.394737
  H      3.699984   -9.935171   -9.002330

 Total Charge           Charge          ....    0
 Multiplicity           Mult            ....    2
 Number of Electrons    NEL             ....    9
 Basis Dimension        Dim             ....   73

ORBITAL ENERGIES
----------------
                 SPIN UP ORBITALS
  NO   OCC          E(Eh)            E(eV)
   0   1.0000     -10.184410      -277.1319
   1   1.0000      -0.687379       -18.7045
   2   1.0000      -0.432795       -11.7769
   3   1.0000      -0.412371       -11.2212
   4   1.0000      -0.234722        -6.3871
   5   0.0000       0.001004         0.0273
   6   0.0000       0.035657         0.9703
   7   0.0000       0.037848         1.0299
   8   0.0000       0.047496         1.2924
   9   0.0000       0.088523         2.4088

                 SPIN DOWN ORBITALS
  NO   OCC          E(Eh)            E(eV)
   0   1.0000     -10.169980      -276.7392
   1   1.0000      -0.647927       -17.6310
   2   1.0000      -0.423451       -11.5227
   3   1.0000      -0.402804       -10.9609
   4   0.0000      -0.077326        -2.1041
   5   0.0000       0.004138         0.1126
   6   0.0000       0.035292         0.9603
   7   0.0000       0.037438         1.0188
   8   0.0000       0.060755         1.6532

MULLIKEN ATOMIC CHARGES AND SPIN POPULATIONS
--------------------------------------------
   0 C :   -0.427378    1.103289
   1 H :    0.142962   -0.034507
   2 H :    0.147256   -0.033451
   3 H :    0.137160   -0.035330
Sum of atomic charges         :    0.0000000

LOEWDIN ATOMIC CHARGES AND SPIN POPULATIONS
-------------------------------------------
   0 C :   -0.150767    0.907757
   1 H :    0.049447    0.031040
   2 H :    0.048425    0.031498
   3 H :    0.052896    0.029705

  Mayer bond orders larger than 0.100000
B(  0-C ,  1-H ) :   0.9775 B(  0-C ,  2-H ) :   0.9767 B(  0-C ,  3-H ) :   0.9783

FINAL SINGLE POINT ENERGY       -39.827975999150

DIPOLE MOMENT
-------------
                                X             Y             Z
Electronic contribution:      0.06071       0.05534       0.01547
Nuclear contribution   :     -0.06313      -0.06897      -0.01405
                        -----------------------------------------
Total Dipole Moment    :     -0.00241      -0.01362       0.00142
                        -----------------------------------------
Magnitude (a.u.)       :      0.01391
Magnitude (Debye)      :      0.03535

Rotational constants in cm-1:    10.153748     9.005363     4.773699
Rotational constants in MHz : 304401.706432 269973.980873 143111.885771

                             ****ORCA TERMINATED NORMALLY****
TOTAL RUN TIME: 0 days 0 hours 0 minutes 21 seconds 618 msec
