                         Program Version 5.0.3 -  RELEASE  -
|  1> !B3LYP EPR-III Autoaux
|  2> !PAL4
|  3>
|  4> * xyz 0 2
|  5>  C    -84.5473418788   -111.9867638964    -31.4660867492
|  6>  H    -84.3314091964   -113.0207700558    -31.5567614906
|  7>  H    -83.7811813046   -111.2051774195    -31.3743291147
|  8>  H    -85.4207808727   -111.5331932673    -31.4750096158
|  9> *
| 10>
| 11> %EPRNMR
| 12>         GTENSOR   TRUE
| 13>         NUCLEI    = ALL H {AISO, ADIP, AORB}
| 14>         NUCLEI    = ALL C {AISO, ADIP, AORB}
| 15> END
| 16>
| 17>
| 18>                          ****END OF INPUT****

CARTESIAN COORDINATES (ANGSTROEM)
---------------------------------
  C    -84.547342  -111.986764  -31.466087
  H    -84.331409  -113.020770  -31.556761
  H    -83.781181  -111.205177  -31.374329
  H    -85.420781  -111.533193  -31.475010

 Total Charge           Charge          ....    0
 Multiplicity           Mult            ....    2
 Number of Electrons    NEL             ....    9
 Basis Dimension        Dim             ....   73

ORBITAL ENERGIES
----------------
                 SPIN UP ORBITALS
  NO   OCC          E(Eh)            E(eV)
   0   1.0000     -10.174084      -276.8509
   1   1.0000      -0.699012       -19.0211
   2   1.0000      -0.451349       -12.2818
   3   1.0000      -0.407094       -11.0776
   4   1.0000      -0.234994        -6.3945
   5   0.0000       0.001656         0.0451
   6   0.0000       0.034662         0.9432
   7   0.0000       0.038786         1.0554
   8   0.0000       0.047612         1.2956
   9   0.0000       0.089559         2.4370

                 SPIN DOWN ORBITALS
  NO   OCC          E(Eh)            E(eV)
   0   1.0000     -10.159815      -276.4626
   1   1.0000      -0.660047       -17.9608
   2   1.0000      -0.441489       -12.0135
   3   1.0000      -0.397141       -10.8068
   4   0.0000      -0.077841        -2.1182
   5   0.0000       0.004544         0.1236
   6   0.0000       0.034292         0.9331
   7   0.0000       0.038318         1.0427
   8   0.0000       0.060758         1.6533

MULLIKEN ATOMIC CHARGES AND SPIN POPULATIONS
--------------------------------------------
   0 C :   -0.432475    1.098942
   1 H :    0.151759   -0.031772
   2 H :    0.131215   -0.036825
   3 H :    0.149502   -0.030345
Sum of atomic charges         :    0.0000000

LOEWDIN ATOMIC CHARGES AND SPIN POPULATIONS
-------------------------------------------
   0 C :   -0.117177    0.892206
   1 H :    0.048950    0.033056
   2 H :    0.064773    0.027612
   3 H :    0.003454    0.047126

  Mayer bond orders larger than 0.100000
B(  0-C ,  1-H ) :   0.9807 B(  0-C ,  2-H ) :   0.9838 B(  0-C ,  3-H ) :   0.9819

FINAL SINGLE POINT ENERGY       -39.817463922520

DIPOLE MOMENT
-------------
                                X             Y             Z
Electronic contribution:     -0.09285      -0.13522      -0.00214
Nuclear contribution   :      0.08143       0.15076      -0.00588
                        -----------------------------------------
Total Dipole Moment    :     -0.01142       0.01554      -0.00802
                        -----------------------------------------
Magnitude (a.u.)       :      0.02089
Magnitude (Debye)      :      0.05309

Rotational constants in cm-1:    11.962745     8.812451     5.075106
Rotational constants in MHz : 358634.058771 264190.629314 152147.849062

                             ****ORCA TERMINATED NORMALLY****
TOTAL RUN TIME: 0 days 0 hours 0 minutes 19 seconds 233 msec
