                         Program Version 5.0.3 -  RELEASE  -
|  1> !B3LYP EPR-III Autoaux
|  2> !PAL4
|  3>
|  4> * xyz 0 2
|  5>  C    -68.0184011315    -91.7918530031    -27.5512934907
|  6>  H    -69.1181976091    -91.9040483347    -27.5530722172
|  7>  H    -67.2803360427    -92.6707902462    -27.6121304962
|  8>  H    -67.6563784018    -90.7852875383    -27.4419269214
|  9> *
| 10>
| 11> %EPRNMR
| 12>         GTENSOR   TRUE
| 13>         NUCLEI    = ALL H {AISO, ADIP, AORB}
| 14>         NUCLEI    = ALL C {AISO, ADIP, AORB}
| 15> END
| 16>
| 17>
| 18>                          ****END OF INPUT****

CARTESIAN COORDINATES (ANGSTROEM)
---------------------------------
  C    -68.018401  -91.791853  -27.551293
  H    -69.118198  -91.904048  -27.553072
  H    -67.280336  -92.670790  -27.612130
  H    -67.656378  -90.785288  -27.441927

 Total Charge           Charge          ....    0
 Multiplicity           Mult            ....    2
 Number of Electrons    NEL             ....    9
 Basis Dimension        Dim             ....   73

ORBITAL ENERGIES
----------------
                 SPIN UP ORBITALS
  NO   OCC          E(Eh)            E(eV)
   0   1.0000     -10.192902      -277.3630
   1   1.0000      -0.680194       -18.5090
   2   1.0000      -0.417797       -11.3688
   3   1.0000      -0.414596       -11.2817
   4   1.0000      -0.234820        -6.3898
   5   0.0000      -0.000253        -0.0069
   6   0.0000       0.035981         0.9791
   7   0.0000       0.037298         1.0149
   8   0.0000       0.047345         1.2883
   9   0.0000       0.081010         2.2044

                 SPIN DOWN ORBITALS
  NO   OCC          E(Eh)            E(eV)
   0   1.0000     -10.178293      -276.9654
   1   1.0000      -0.640448       -17.4275
   2   1.0000      -0.408974       -11.1288
   3   1.0000      -0.405043       -11.0218
   4   0.0000      -0.076997        -2.0952
   5   0.0000       0.003228         0.0878
   6   0.0000       0.035723         0.9721
   7   0.0000       0.036935         1.0051
   8   0.0000       0.060692         1.6515

MULLIKEN ATOMIC CHARGES AND SPIN POPULATIONS
--------------------------------------------
   0 C :   -0.427530    1.108963
   1 H :    0.142321   -0.036067
   2 H :    0.143516   -0.038594
   3 H :    0.141692   -0.034302
Sum of atomic charges         :    0.0000000

LOEWDIN ATOMIC CHARGES AND SPIN POPULATIONS
-------------------------------------------
   0 C :   -0.174986    0.920438
   1 H :    0.056907    0.027180
   2 H :    0.076596    0.020069
   3 H :    0.041483    0.032312

  Mayer bond orders larger than 0.100000
B(  0-C ,  1-H ) :   0.9735 B(  0-C ,  2-H ) :   0.9718 B(  0-C ,  3-H ) :   0.9739

FINAL SINGLE POINT ENERGY       -39.824918672380

DIPOLE MOMENT
-------------
                                X             Y             Z
Electronic contribution:     -0.00172       0.00078      -0.02142
Nuclear contribution   :      0.00022       0.01157       0.03504
                        -----------------------------------------
Total Dipole Moment    :     -0.00150       0.01234       0.01362
                        -----------------------------------------
Magnitude (a.u.)       :      0.01844
Magnitude (Debye)      :      0.04688

Rotational constants in cm-1:     9.923524     8.302081     4.521665
Rotational constants in MHz : 297499.764313 248890.113334 135556.101695

                             ****ORCA TERMINATED NORMALLY****
TOTAL RUN TIME: 0 days 0 hours 0 minutes 21 seconds 641 msec
