                         Program Version 5.0.3 -  RELEASE  -
|  1> !B3LYP EPR-III Autoaux
|  2> !PAL4
|  3>
|  4> * xyz 0 2
|  5>  C    -20.8257767768    -38.4652122115    -15.7867132344
|  6>  H    -21.5729019812    -39.2300901350    -15.6811286086
|  7>  H    -19.8204800353    -38.5512908176    -16.1177839682
|  8>  H    -21.1547048502    -37.5471943084    -15.3684850230
|  9> *
| 10>
| 11> %EPRNMR
| 12>         GTENSOR   TRUE
| 13>         NUCLEI    = ALL H {AISO, ADIP, AORB}
| 14>         NUCLEI    = ALL C {AISO, ADIP, AORB}
| 15> END
| 16>
| 17>
| 18>                          ****END OF INPUT****

CARTESIAN COORDINATES (ANGSTROEM)
---------------------------------
  C    -20.825777  -38.465212  -15.786713
  H    -21.572902  -39.230090  -15.681129
  H    -19.820480  -38.551291  -16.117784
  H    -21.154705  -37.547194  -15.368485

 Total Charge           Charge          ....    0
 Multiplicity           Mult            ....    2
 Number of Electrons    NEL             ....    9
 Basis Dimension        Dim             ....   73

ORBITAL ENERGIES
----------------
                 SPIN UP ORBITALS
  NO   OCC          E(Eh)            E(eV)
   0   1.0000     -10.179875      -277.0085
   1   1.0000      -0.692039       -18.8313
   2   1.0000      -0.439940       -11.9714
   3   1.0000      -0.410730       -11.1765
   4   1.0000      -0.235222        -6.4007
   5   0.0000       0.001365         0.0371
   6   0.0000       0.035161         0.9568
   7   0.0000       0.038419         1.0454
   8   0.0000       0.047552         1.2940
   9   0.0000       0.087321         2.3761

                 SPIN DOWN ORBITALS
  NO   OCC          E(Eh)            E(eV)
   0   1.0000     -10.165514      -276.6177
   1   1.0000      -0.652897       -17.7662
   2   1.0000      -0.430514       -11.7149
   3   1.0000      -0.400806       -10.9065
   4   0.0000      -0.077781        -2.1165
   5   0.0000       0.004354         0.1185
   6   0.0000       0.034791         0.9467
   7   0.0000       0.037974         1.0333
   8   0.0000       0.060750         1.6531

MULLIKEN ATOMIC CHARGES AND SPIN POPULATIONS
--------------------------------------------
   0 C :   -0.428400    1.100194
   1 H :    0.143380   -0.034305
   2 H :    0.149298   -0.032126
   3 H :    0.135722   -0.033763
Sum of atomic charges         :    0.0000000

LOEWDIN ATOMIC CHARGES AND SPIN POPULATIONS
-------------------------------------------
   0 C :   -0.137982    0.901050
   1 H :    0.050699    0.031467
   2 H :    0.045135    0.033394
   3 H :    0.042147    0.034089

  Mayer bond orders larger than 0.100000
B(  0-C ,  1-H ) :   0.9798 B(  0-C ,  2-H ) :   0.9788 B(  0-C ,  3-H ) :   0.9806

FINAL SINGLE POINT ENERGY       -39.826091905055

DIPOLE MOMENT
-------------
                                X             Y             Z
Electronic contribution:      0.05631      -0.04627      -0.10166
Nuclear contribution   :     -0.05303       0.05026       0.14446
                        -----------------------------------------
Total Dipole Moment    :      0.00328       0.00399       0.04280
                        -----------------------------------------
Magnitude (a.u.)       :      0.04311
Magnitude (Debye)      :      0.10958

Rotational constants in cm-1:    10.960666     8.877413     4.919004
Rotational constants in MHz : 328592.504269 266138.159473 147468.019965

                             ****ORCA TERMINATED NORMALLY****
TOTAL RUN TIME: 0 days 0 hours 0 minutes 21 seconds 761 msec
