                         Program Version 5.0.3 -  RELEASE  -
|  1> !B3LYP EPR-III Autoaux
|  2> !PAL4
|  3>
|  4> * xyz 0 2
|  5>  C    -48.4025813596    -69.3955711278    -22.7518211802
|  6>  H    -47.8193638909    -70.3405093794    -22.8017269452
|  7>  H    -47.6459845412    -68.5222642746    -22.7023517529
|  8>  H    -49.5081699835    -69.3830698402    -22.8112291441
|  9> *
| 10>
| 11> %EPRNMR
| 12>         GTENSOR   TRUE
| 13>         NUCLEI    = ALL H {AISO, ADIP, AORB}
| 14>         NUCLEI    = ALL C {AISO, ADIP, AORB}
| 15> END
| 16>
| 17>
| 18>                          ****END OF INPUT****

CARTESIAN COORDINATES (ANGSTROEM)
---------------------------------
  C    -48.402581  -69.395571  -22.751821
  H    -47.819364  -70.340509  -22.801727
  H    -47.645985  -68.522264  -22.702352
  H    -49.508170  -69.383070  -22.811229

 Total Charge           Charge          ....    0
 Multiplicity           Mult            ....    2
 Number of Electrons    NEL             ....    9
 Basis Dimension        Dim             ....   73

ORBITAL ENERGIES
----------------
                 SPIN UP ORBITALS
  NO   OCC          E(Eh)            E(eV)
   0   1.0000     -10.197620      -277.4913
   1   1.0000      -0.676582       -18.4107
   2   1.0000      -0.431988       -11.7550
   3   1.0000      -0.393242       -10.7007
   4   1.0000      -0.235203        -6.4002
   5   0.0000      -0.001078        -0.0293
   6   0.0000       0.034162         0.9296
   7   0.0000       0.038791         1.0556
   8   0.0000       0.047231         1.2852
   9   0.0000       0.075730         2.0607

                 SPIN DOWN ORBITALS
  NO   OCC          E(Eh)            E(eV)
   0   1.0000     -10.182903      -277.0909
   1   1.0000      -0.636675       -17.3248
   2   1.0000      -0.423207       -11.5161
   3   1.0000      -0.383933       -10.4473
   4   0.0000      -0.077081        -2.0975
   5   0.0000       0.002604         0.0709
   6   0.0000       0.033931         0.9233
   7   0.0000       0.038471         1.0469
   8   0.0000       0.060605         1.6491

MULLIKEN ATOMIC CHARGES AND SPIN POPULATIONS
--------------------------------------------
   0 C :   -0.431762    1.113058
   1 H :    0.136253   -0.037457
   2 H :    0.140990   -0.040679
   3 H :    0.154518   -0.034923
Sum of atomic charges         :    0.0000000

LOEWDIN ATOMIC CHARGES AND SPIN POPULATIONS
-------------------------------------------
   0 C :   -0.189835    0.927495
   1 H :    0.055147    0.026627
   2 H :    0.076685    0.019158
   3 H :    0.058003    0.026720

  Mayer bond orders larger than 0.100000
B(  0-C ,  1-H ) :   0.9730 B(  0-C ,  2-H ) :   0.9716 B(  0-C ,  3-H ) :   0.9689

FINAL SINGLE POINT ENERGY       -39.820635348261

DIPOLE MOMENT
-------------
                                X             Y             Z
Electronic contribution:     -0.16351       0.02936       0.02675
Nuclear contribution   :      0.17555      -0.04432      -0.04485
                        -----------------------------------------
Total Dipole Moment    :      0.01204      -0.01496      -0.01810
                        -----------------------------------------
Magnitude (a.u.)       :      0.02639
Magnitude (Debye)      :      0.06707

Rotational constants in cm-1:    10.191580     7.760080     4.408159
Rotational constants in MHz : 305535.887171 232641.331611 132153.275096

                             ****ORCA TERMINATED NORMALLY****
TOTAL RUN TIME: 0 days 0 hours 0 minutes 18 seconds 866 msec
