                         Program Version 5.0.3 -  RELEASE  -
|  1> !B3LYP EPR-III Autoaux
|  2> !PAL4
|  3>
|  4> * xyz 0 2
|  5>  C    -39.2000404032    -59.1425998978    -20.4376884940
|  6>  H    -40.2506206450    -59.1123587793    -20.4663626749
|  7>  H    -38.6261279771    -60.0160062569    -20.6465196637
|  8>  H    -38.7334932587    -58.1989182413    -20.2759888777
|  9> *
| 10>
| 11> %EPRNMR
| 12>         GTENSOR   TRUE
| 13>         NUCLEI    = ALL H {AISO, ADIP, AORB}
| 14>         NUCLEI    = ALL C {AISO, ADIP, AORB}
| 15> END
| 16>
| 17>
| 18>                          ****END OF INPUT****

CARTESIAN COORDINATES (ANGSTROEM)
---------------------------------
  C    -39.200040  -59.142600  -20.437688
  H    -40.250621  -59.112359  -20.466363
  H    -38.626128  -60.016006  -20.646520
  H    -38.733493  -58.198918  -20.275989

 Total Charge           Charge          ....    0
 Multiplicity           Mult            ....    2
 Number of Electrons    NEL             ....    9
 Basis Dimension        Dim             ....   73

ORBITAL ENERGIES
----------------
                 SPIN UP ORBITALS
  NO   OCC          E(Eh)            E(eV)
   0   1.0000     -10.178190      -276.9626
   1   1.0000      -0.692940       -18.8559
   2   1.0000      -0.434632       -11.8269
   3   1.0000      -0.419217       -11.4075
   4   1.0000      -0.234839        -6.3903
   5   0.0000       0.001591         0.0433
   6   0.0000       0.035994         0.9794
   7   0.0000       0.037688         1.0255
   8   0.0000       0.047594         1.2951
   9   0.0000       0.092609         2.5200

                 SPIN DOWN ORBITALS
  NO   OCC          E(Eh)            E(eV)
   0   1.0000     -10.163869      -276.5729
   1   1.0000      -0.653752       -17.7895
   2   1.0000      -0.425073       -11.5668
   3   1.0000      -0.409410       -11.1406
   4   0.0000      -0.077591        -2.1114
   5   0.0000       0.004546         0.1237
   6   0.0000       0.035593         0.9685
   7   0.0000       0.037243         1.0134
   8   0.0000       0.060794         1.6543

MULLIKEN ATOMIC CHARGES AND SPIN POPULATIONS
--------------------------------------------
   0 C :   -0.427296    1.099035
   1 H :    0.142441   -0.032676
   2 H :    0.145791   -0.032714
   3 H :    0.139064   -0.033645
Sum of atomic charges         :    0.0000000

LOEWDIN ATOMIC CHARGES AND SPIN POPULATIONS
-------------------------------------------
   0 C :   -0.132393    0.898660
   1 H :    0.039190    0.035397
   2 H :    0.047373    0.032765
   3 H :    0.045830    0.033178

  Mayer bond orders larger than 0.100000
B(  0-C ,  1-H ) :   0.9803 B(  0-C ,  2-H ) :   0.9795 B(  0-C ,  3-H ) :   0.9806

FINAL SINGLE POINT ENERGY       -39.827473606334

DIPOLE MOMENT
-------------
                                X             Y             Z
Electronic contribution:      0.00420      -0.06244       0.03167
Nuclear contribution   :     -0.00759       0.07534      -0.05681
                        -----------------------------------------
Total Dipole Moment    :     -0.00339       0.01289      -0.02514
                        -----------------------------------------
Magnitude (a.u.)       :      0.02846
Magnitude (Debye)      :      0.07233

Rotational constants in cm-1:    10.529185     9.350283     4.959344
Rotational constants in MHz : 315657.031762 280314.434580 148677.383845

                             ****ORCA TERMINATED NORMALLY****
TOTAL RUN TIME: 0 days 0 hours 0 minutes 19 seconds 734 msec
