                         Program Version 5.0.3 -  RELEASE  -
|  1> !B3LYP EPR-III Autoaux
|  2> !PAL4
|  3>
|  4> * xyz 0 2
|  5>  C    -75.9125173397   -101.3767762600    -29.3908056228
|  6>  H    -76.7435786868   -102.0493792180    -29.4485014778
|  7>  H    -74.9337052159   -101.9383895153    -29.3910531976
|  8>  H    -76.1742003838   -100.3809579161    -29.3057364229
|  9> *
| 10>
| 11> %EPRNMR
| 12>         GTENSOR   TRUE
| 13>         NUCLEI    = ALL H {AISO, ADIP, AORB}
| 14>         NUCLEI    = ALL C {AISO, ADIP, AORB}
| 15> END
| 16>
| 17>
| 18>                          ****END OF INPUT****

CARTESIAN COORDINATES (ANGSTROEM)
---------------------------------
  C    -75.912517  -101.376776  -29.390806
  H    -76.743579  -102.049379  -29.448501
  H    -74.933705  -101.938390  -29.391053
  H    -76.174200  -100.380958  -29.305736

 Total Charge           Charge          ....    0
 Multiplicity           Mult            ....    2
 Number of Electrons    NEL             ....    9
 Basis Dimension        Dim             ....   73

ORBITAL ENERGIES
----------------
                 SPIN UP ORBITALS
  NO   OCC          E(Eh)            E(eV)
   0   1.0000     -10.183309      -277.1019
   1   1.0000      -0.690161       -18.7802
   2   1.0000      -0.442755       -12.0480
   3   1.0000      -0.402174       -10.9437
   4   1.0000      -0.235001        -6.3947
   5   0.0000       0.000805         0.0219
   6   0.0000       0.034222         0.9312
   7   0.0000       0.038940         1.0596
   8   0.0000       0.047476         1.2919
   9   0.0000       0.079629         2.1668

                 SPIN DOWN ORBITALS
  NO   OCC          E(Eh)            E(eV)
   0   1.0000     -10.168876      -276.7092
   1   1.0000      -0.650885       -17.7115
   2   1.0000      -0.433456       -11.7949
   3   1.0000      -0.392305       -10.6752
   4   0.0000      -0.077530        -2.1097
   5   0.0000       0.003942         0.1073
   6   0.0000       0.033916         0.9229
   7   0.0000       0.038515         1.0481
   8   0.0000       0.060708         1.6520

MULLIKEN ATOMIC CHARGES AND SPIN POPULATIONS
--------------------------------------------
   0 C :   -0.432227    1.104488
   1 H :    0.131937   -0.034841
   2 H :    0.146836   -0.038409
   3 H :    0.153454   -0.031238
Sum of atomic charges         :   -0.0000000

LOEWDIN ATOMIC CHARGES AND SPIN POPULATIONS
-------------------------------------------
   0 C :   -0.147348    0.906123
   1 H :    0.044243    0.032816
   2 H :    0.075022    0.022538
   3 H :    0.028083    0.038523

  Mayer bond orders larger than 0.100000
B(  0-C ,  1-H ) :   0.9799 B(  0-C ,  2-H ) :   0.9768 B(  0-C ,  3-H ) :   0.9785

FINAL SINGLE POINT ENERGY       -39.821599232574

DIPOLE MOMENT
-------------
                                X             Y             Z
Electronic contribution:      0.06202       0.15977      -0.00853
Nuclear contribution   :     -0.08539      -0.17867       0.02033
                        -----------------------------------------
Total Dipole Moment    :     -0.02337      -0.01890       0.01180
                        -----------------------------------------
Magnitude (a.u.)       :      0.03229
Magnitude (Debye)      :      0.08207

Rotational constants in cm-1:    11.225304     8.390094     4.803089
Rotational constants in MHz : 336526.160908 251528.695740 143992.981238

                             ****ORCA TERMINATED NORMALLY****
TOTAL RUN TIME: 0 days 0 hours 0 minutes 22 seconds 88 msec
