                         Program Version 5.0.3 -  RELEASE  -
|  1> !B3LYP EPR-III Autoaux
|  2> !PAL4
|  3>
|  4> * xyz 0 2
|  5>  C    -93.2920133031   -122.9185658952    -33.3194666439
|  6>  H    -92.3642933889   -123.3986688874    -33.3220626556
|  7>  H    -93.3659070459   -121.8628540339    -33.2420603428
|  8>  H    -94.0913748449   -123.6145677795    -33.4167881972
|  9> *
| 10>
| 11> %EPRNMR
| 12>         GTENSOR   TRUE
| 13>         NUCLEI    = ALL H {AISO, ADIP, AORB}
| 14>         NUCLEI    = ALL C {AISO, ADIP, AORB}
| 15> END
| 16>
| 17>
| 18>                          ****END OF INPUT****

CARTESIAN COORDINATES (ANGSTROEM)
---------------------------------
  C    -93.292013  -122.918566  -33.319467
  H    -92.364293  -123.398669  -33.322063
  H    -93.365907  -121.862854  -33.242060
  H    -94.091375  -123.614568  -33.416788

 Total Charge           Charge          ....    0
 Multiplicity           Mult            ....    2
 Number of Electrons    NEL             ....    9
 Basis Dimension        Dim             ....   73

ORBITAL ENERGIES
----------------
                 SPIN UP ORBITALS
  NO   OCC          E(Eh)            E(eV)
   0   1.0000     -10.176917      -276.9280
   1   1.0000      -0.694410       -18.8958
   2   1.0000      -0.440021       -11.9736
   3   1.0000      -0.415190       -11.2979
   4   1.0000      -0.234629        -6.3846
   5   0.0000       0.001647         0.0448
   6   0.0000       0.035393         0.9631
   7   0.0000       0.038192         1.0392
   8   0.0000       0.047612         1.2956
   9   0.0000       0.089848         2.4449

                 SPIN DOWN ORBITALS
  NO   OCC          E(Eh)            E(eV)
   0   1.0000     -10.162622      -276.5390
   1   1.0000      -0.655267       -17.8307
   2   1.0000      -0.430524       -11.7152
   3   1.0000      -0.405213       -11.0264
   4   0.0000      -0.077536        -2.1099
   5   0.0000       0.004585         0.1248
   6   0.0000       0.035001         0.9524
   7   0.0000       0.037728         1.0266
   8   0.0000       0.060806         1.6546

MULLIKEN ATOMIC CHARGES AND SPIN POPULATIONS
--------------------------------------------
   0 C :   -0.429314    1.099343
   1 H :    0.138858   -0.032978
   2 H :    0.148629   -0.032339
   3 H :    0.141826   -0.034026
Sum of atomic charges         :   -0.0000000

LOEWDIN ATOMIC CHARGES AND SPIN POPULATIONS
-------------------------------------------
   0 C :   -0.129275    0.896949
   1 H :    0.035777    0.036672
   2 H :    0.046405    0.033319
   3 H :    0.047092    0.033060

  Mayer bond orders larger than 0.100000
B(  0-C ,  1-H ) :   0.9813 B(  0-C ,  2-H ) :   0.9798 B(  0-C ,  3-H ) :   0.9812

FINAL SINGLE POINT ENERGY       -39.825873978357

DIPOLE MOMENT
-------------
                                X             Y             Z
Electronic contribution:     -0.03009       0.07836       0.01195
Nuclear contribution   :      0.04082      -0.09023      -0.01687
                        -----------------------------------------
Total Dipole Moment    :      0.01073      -0.01187      -0.00492
                        -----------------------------------------
Magnitude (a.u.)       :      0.01674
Magnitude (Debye)      :      0.04254

Rotational constants in cm-1:    11.123806     9.062233     4.994054
Rotational constants in MHz : 333483.313961 271678.905231 149717.968701

                             ****ORCA TERMINATED NORMALLY****
TOTAL RUN TIME: 0 days 0 hours 0 minutes 28 seconds 878 msec
