                         Program Version 5.0.3 -  RELEASE  -
|  1> !B3LYP EPR-III Autoaux
|  2> !PAL4
|  3>
|  4> * xyz 0 2
|  5>  C    -72.4523917751    -97.1961343232    -28.5705544976
|  6>  H    -71.8025098114    -96.3950248612    -28.4779320030
|  7>  H    -73.5339811967    -96.9540034108    -28.5657115975
|  8>  H    -72.1860992025    -98.1782434233    -28.6271955763
|  9> *
| 10>
| 11> %EPRNMR
| 12>         GTENSOR   TRUE
| 13>         NUCLEI    = ALL H {AISO, ADIP, AORB}
| 14>         NUCLEI    = ALL C {AISO, ADIP, AORB}
| 15> END
| 16>
| 17>
| 18>                          ****END OF INPUT****

CARTESIAN COORDINATES (ANGSTROEM)
---------------------------------
  C    -72.452392  -97.196134  -28.570554
  H    -71.802510  -96.395025  -28.477932
  H    -73.533981  -96.954003  -28.565712
  H    -72.186099  -98.178243  -28.627196

 Total Charge           Charge          ....    0
 Multiplicity           Mult            ....    2
 Number of Electrons    NEL             ....    9
 Basis Dimension        Dim             ....   73

ORBITAL ENERGIES
----------------
                 SPIN UP ORBITALS
  NO   OCC          E(Eh)            E(eV)
   0   1.0000     -10.176222      -276.9091
   1   1.0000      -0.695330       -18.9209
   2   1.0000      -0.444288       -12.0897
   3   1.0000      -0.413104       -11.2411
   4   1.0000      -0.234853        -6.3907
   5   0.0000       0.001690         0.0460
   6   0.0000       0.035635         0.9697
   7   0.0000       0.037959         1.0329
   8   0.0000       0.047602         1.2953
   9   0.0000       0.090134         2.4527

                 SPIN DOWN ORBITALS
  NO   OCC          E(Eh)            E(eV)
   0   1.0000     -10.161930      -276.5202
   1   1.0000      -0.656112       -17.8537
   2   1.0000      -0.434374       -11.8199
   3   1.0000      -0.403563       -10.9815
   4   0.0000      -0.077669        -2.1135
   5   0.0000       0.004610         0.1254
   6   0.0000       0.035213         0.9582
   7   0.0000       0.037536         1.0214
   8   0.0000       0.060779         1.6539

MULLIKEN ATOMIC CHARGES AND SPIN POPULATIONS
--------------------------------------------
   0 C :   -0.427983    1.098332
   1 H :    0.146305   -0.031515
   2 H :    0.132881   -0.036541
   3 H :    0.148797   -0.030276
Sum of atomic charges         :   -0.0000000

LOEWDIN ATOMIC CHARGES AND SPIN POPULATIONS
-------------------------------------------
   0 C :   -0.123368    0.895333
   1 H :    0.032789    0.037824
   2 H :    0.067047    0.026098
   3 H :    0.023532    0.040745

  Mayer bond orders larger than 0.100000
B(  0-C ,  1-H ) :   0.9809 B(  0-C ,  2-H ) :   0.9818 B(  0-C ,  3-H ) :   0.9807

FINAL SINGLE POINT ENERGY       -39.824002826387

DIPOLE MOMENT
-------------
                                X             Y             Z
Electronic contribution:      0.12489      -0.04611      -0.01889
Nuclear contribution   :     -0.12398       0.04582       0.03060
                        -----------------------------------------
Total Dipole Moment    :      0.00091      -0.00029       0.01171
                        -----------------------------------------
Magnitude (a.u.)       :      0.01175
Magnitude (Debye)      :      0.02986

Rotational constants in cm-1:    10.058979     9.981432     5.011308
Rotational constants in MHz : 301560.599384 299235.790382 150235.227401

                             ****ORCA TERMINATED NORMALLY****
TOTAL RUN TIME: 0 days 0 hours 0 minutes 21 seconds 374 msec
