                         Program Version 5.0.3 -  RELEASE  -
|  1> !B3LYP EPR-III Autoaux
|  2> !PAL4
|  3>
|  4> * xyz 0 2
|  5>  C    -21.0519857276    -38.7274239555    -15.8304919318
|  6>  H    -21.5726118069    -39.6476043901    -15.7310566363
|  7>  H    -20.0483802715    -38.5488702805    -16.2248579999
|  8>  H    -21.6500832025    -37.8546443172    -15.5732813621
|  9> *
| 10>
| 11> %EPRNMR
| 12>         GTENSOR   TRUE
| 13>         NUCLEI    = ALL H {AISO, ADIP, AORB}
| 14>         NUCLEI    = ALL C {AISO, ADIP, AORB}
| 15> END
| 16>
| 17>
| 18>                          ****END OF INPUT****

CARTESIAN COORDINATES (ANGSTROEM)
---------------------------------
  C    -21.051986  -38.727424  -15.830492
  H    -21.572612  -39.647604  -15.731057
  H    -20.048380  -38.548870  -16.224858
  H    -21.650083  -37.854644  -15.573281

 Total Charge           Charge          ....    0
 Multiplicity           Mult            ....    2
 Number of Electrons    NEL             ....    9
 Basis Dimension        Dim             ....   73

ORBITAL ENERGIES
----------------
                 SPIN UP ORBITALS
  NO   OCC          E(Eh)            E(eV)
   0   1.0000     -10.184563      -277.1360
   1   1.0000      -0.687623       -18.7112
   2   1.0000      -0.435082       -11.8392
   3   1.0000      -0.409393       -11.1402
   4   1.0000      -0.234927        -6.3927
   5   0.0000       0.000936         0.0255
   6   0.0000       0.035298         0.9605
   7   0.0000       0.038164         1.0385
   8   0.0000       0.047482         1.2921
   9   0.0000       0.085874         2.3368

                 SPIN DOWN ORBITALS
  NO   OCC          E(Eh)            E(eV)
   0   1.0000     -10.170123      -276.7431
   1   1.0000      -0.648235       -17.6394
   2   1.0000      -0.425773       -11.5859
   3   1.0000      -0.399733       -10.8773
   4   0.0000      -0.077425        -2.1068
   5   0.0000       0.004070         0.1107
   6   0.0000       0.034949         0.9510
   7   0.0000       0.037750         1.0272
   8   0.0000       0.060735         1.6527

MULLIKEN ATOMIC CHARGES AND SPIN POPULATIONS
--------------------------------------------
   0 C :   -0.428224    1.103432
   1 H :    0.146751   -0.033273
   2 H :    0.147027   -0.034731
   3 H :    0.134447   -0.035427
Sum of atomic charges         :    0.0000000

LOEWDIN ATOMIC CHARGES AND SPIN POPULATIONS
-------------------------------------------
   0 C :   -0.151352    0.907928
   1 H :    0.041443    0.033808
   2 H :    0.057298    0.028519
   3 H :    0.052610    0.029746

  Mayer bond orders larger than 0.100000
B(  0-C ,  1-H ) :   0.9774 B(  0-C ,  2-H ) :   0.9764 B(  0-C ,  3-H ) :   0.9788

FINAL SINGLE POINT ENERGY       -39.826848076022

DIPOLE MOMENT
-------------
                                X             Y             Z
Electronic contribution:      0.06849      -0.08909       0.00999
Nuclear contribution   :     -0.08628       0.09830      -0.02827
                        -----------------------------------------
Total Dipole Moment    :     -0.01779       0.00921      -0.01828
                        -----------------------------------------
Magnitude (a.u.)       :      0.02712
Magnitude (Debye)      :      0.06894

Rotational constants in cm-1:    10.429039     8.783120     4.772931
Rotational constants in MHz : 312654.713298 263311.299612 143088.873275

                             ****ORCA TERMINATED NORMALLY****
TOTAL RUN TIME: 0 days 0 hours 0 minutes 21 seconds 757 msec
