                         Program Version 5.0.3 -  RELEASE  -
|  1> !B3LYP EPR-III Autoaux
|  2> !PAL4
|  3>
|  4> * xyz 0 2
|  5>  C    -35.5964910898    -55.0883216982    -19.5387524964
|  6>  H    -34.5094580061    -55.3955518010    -19.4679133032
|  7>  H    -36.0864972796    -54.2232945147    -19.3753706827
|  8>  H    -36.3066083213    -55.8941703101    -19.6899246674
|  9> *
| 10>
| 11> %EPRNMR
| 12>         GTENSOR   TRUE
| 13>         NUCLEI    = ALL H {AISO, ADIP, AORB}
| 14>         NUCLEI    = ALL C {AISO, ADIP, AORB}
| 15> END
| 16>
| 17>
| 18>                          ****END OF INPUT****

CARTESIAN COORDINATES (ANGSTROEM)
---------------------------------
  C    -35.596491  -55.088322  -19.538752
  H    -34.509458  -55.395552  -19.467913
  H    -36.086497  -54.223295  -19.375371
  H    -36.306608  -55.894170  -19.689925

 Total Charge           Charge          ....    0
 Multiplicity           Mult            ....    2
 Number of Electrons    NEL             ....    9
 Basis Dimension        Dim             ....   73

ORBITAL ENERGIES
----------------
                 SPIN UP ORBITALS
  NO   OCC          E(Eh)            E(eV)
   0   1.0000     -10.182393      -277.0770
   1   1.0000      -0.691973       -18.8295
   2   1.0000      -0.442345       -12.0368
   3   1.0000      -0.403105       -10.9691
   4   1.0000      -0.235490        -6.4080
   5   0.0000       0.000840         0.0229
   6   0.0000       0.034392         0.9359
   7   0.0000       0.038818         1.0563
   8   0.0000       0.047470         1.2917
   9   0.0000       0.080633         2.1941

                 SPIN DOWN ORBITALS
  NO   OCC          E(Eh)            E(eV)
   0   1.0000     -10.167958      -276.6842
   1   1.0000      -0.652877       -17.7657
   2   1.0000      -0.432817       -11.7775
   3   1.0000      -0.393253       -10.7009
   4   0.0000      -0.077808        -2.1173
   5   0.0000       0.003942         0.1073
   6   0.0000       0.034117         0.9284
   7   0.0000       0.038390         1.0447
   8   0.0000       0.060671         1.6510

MULLIKEN ATOMIC CHARGES AND SPIN POPULATIONS
--------------------------------------------
   0 C :   -0.431937    1.103185
   1 H :    0.149311   -0.037337
   2 H :    0.152759   -0.030387
   3 H :    0.129868   -0.035462
Sum of atomic charges         :   -0.0000000

LOEWDIN ATOMIC CHARGES AND SPIN POPULATIONS
-------------------------------------------
   0 C :   -0.142834    0.904385
   1 H :    0.077498    0.021964
   2 H :    0.013220    0.043209
   3 H :    0.052116    0.030443

  Mayer bond orders larger than 0.100000
B(  0-C ,  1-H ) :   0.9759 B(  0-C ,  2-H ) :   0.9793 B(  0-C ,  3-H ) :   0.9809

FINAL SINGLE POINT ENERGY       -39.818983726518

DIPOLE MOMENT
-------------
                                X             Y             Z
Electronic contribution:      0.06425       0.16688      -0.02822
Nuclear contribution   :     -0.08476      -0.18591       0.06224
                        -----------------------------------------
Total Dipole Moment    :     -0.02051      -0.01903       0.03402
                        -----------------------------------------
Magnitude (a.u.)       :      0.04405
Magnitude (Debye)      :      0.11196

Rotational constants in cm-1:    11.357099     8.364797     4.829973
Rotational constants in MHz : 340477.252705 250770.317863 144798.938316

                             ****ORCA TERMINATED NORMALLY****
TOTAL RUN TIME: 0 days 0 hours 0 minutes 32 seconds 665 msec
