                         Program Version 5.0.3 -  RELEASE  -
|  1> !B3LYP EPR-III Autoaux
|  2> !PAL4
|  3>
|  4> * xyz 0 2
|  5>  C    -27.7194488640    -46.2584586715    -17.5436989202
|  6>  H    -27.6858053811    -47.4159213385    -17.4347654203
|  7>  H    -26.9836131903    -45.5063386238    -17.7575233147
|  8>  H    -28.7642244876    -45.8740078783    -17.5014213220
|  9> *
| 10>
| 11> %EPRNMR
| 12>         GTENSOR   TRUE
| 13>         NUCLEI    = ALL H {AISO, ADIP, AORB}
| 14>         NUCLEI    = ALL C {AISO, ADIP, AORB}
| 15> END
| 16>
| 17>
| 18>                          ****END OF INPUT****

CARTESIAN COORDINATES (ANGSTROEM)
---------------------------------
  C    -27.719449  -46.258459  -17.543699
  H    -27.685805  -47.415921  -17.434765
  H    -26.983613  -45.506339  -17.757523
  H    -28.764224  -45.874008  -17.501421

 Total Charge           Charge          ....    0
 Multiplicity           Mult            ....    2
 Number of Electrons    NEL             ....    9
 Basis Dimension        Dim             ....   73

ORBITAL ENERGIES
----------------
                 SPIN UP ORBITALS
  NO   OCC          E(Eh)            E(eV)
   0   1.0000     -10.195357      -277.4298
   1   1.0000      -0.679449       -18.4887
   2   1.0000      -0.433282       -11.7902
   3   1.0000      -0.394989       -10.7482
   4   1.0000      -0.235385        -6.4051
   5   0.0000      -0.000852        -0.0232
   6   0.0000       0.034017         0.9257
   7   0.0000       0.038824         1.0565
   8   0.0000       0.047167         1.2835
   9   0.0000       0.073504         2.0001

                 SPIN DOWN ORBITALS
  NO   OCC          E(Eh)            E(eV)
   0   1.0000     -10.180727      -277.0317
   1   1.0000      -0.639793       -17.4096
   2   1.0000      -0.424410       -11.5488
   3   1.0000      -0.385560       -10.4916
   4   0.0000      -0.077366        -2.1052
   5   0.0000       0.002727         0.0742
   6   0.0000       0.033779         0.9192
   7   0.0000       0.038459         1.0465
   8   0.0000       0.060495         1.6462

MULLIKEN ATOMIC CHARGES AND SPIN POPULATIONS
--------------------------------------------
   0 C :   -0.432905    1.110773
   1 H :    0.148426   -0.040167
   2 H :    0.153638   -0.033486
   3 H :    0.130841   -0.037119
Sum of atomic charges         :   -0.0000000

LOEWDIN ATOMIC CHARGES AND SPIN POPULATIONS
-------------------------------------------
   0 C :   -0.182370    0.923436
   1 H :    0.082897    0.017877
   2 H :    0.042663    0.032287
   3 H :    0.056810    0.026400

  Mayer bond orders larger than 0.100000
B(  0-C ,  1-H ) :   0.9704 B(  0-C ,  2-H ) :   0.9718 B(  0-C ,  3-H ) :   0.9752

FINAL SINGLE POINT ENERGY       -39.820089955419

DIPOLE MOMENT
-------------
                                X             Y             Z
Electronic contribution:      0.18177       0.02223       0.02207
Nuclear contribution   :     -0.20633      -0.01566      -0.04693
                        -----------------------------------------
Total Dipole Moment    :     -0.02456       0.00657      -0.02486
                        -----------------------------------------
Magnitude (a.u.)       :      0.03556
Magnitude (Debye)      :      0.09038

Rotational constants in cm-1:    10.369280     7.848025     4.472922
Rotational constants in MHz : 310863.202039 235277.870276 134094.813200

                             ****ORCA TERMINATED NORMALLY****
TOTAL RUN TIME: 0 days 0 hours 0 minutes 22 seconds 705 msec
