                         Program Version 5.0.3 -  RELEASE  -
|  1> !B3LYP EPR-III Autoaux
|  2> !PAL4
|  3>
|  4> * xyz 0 2
|  5>  C    -38.4595734333    -58.3092370010    -20.2478073757
|  6>  H    -39.3079658870    -57.5278231317    -20.3013164528
|  7>  H    -38.5201443126    -59.3651103078    -20.3527841415
|  8>  H    -37.4249558486    -57.8735529022    -20.1538119971
|  9> *
| 10>
| 11> %EPRNMR
| 12>         GTENSOR   TRUE
| 13>         NUCLEI    = ALL H {AISO, ADIP, AORB}
| 14>         NUCLEI    = ALL C {AISO, ADIP, AORB}
| 15> END
| 16>
| 17>
| 18>                          ****END OF INPUT****

CARTESIAN COORDINATES (ANGSTROEM)
---------------------------------
  C    -38.459573  -58.309237  -20.247807
  H    -39.307966  -57.527823  -20.301316
  H    -38.520144  -59.365110  -20.352784
  H    -37.424956  -57.873553  -20.153812

 Total Charge           Charge          ....    0
 Multiplicity           Mult            ....    2
 Number of Electrons    NEL             ....    9
 Basis Dimension        Dim             ....   73

ORBITAL ENERGIES
----------------
                 SPIN UP ORBITALS
  NO   OCC          E(Eh)            E(eV)
   0   1.0000     -10.194446      -277.4050
   1   1.0000      -0.679450       -18.4888
   2   1.0000      -0.429935       -11.6991
   3   1.0000      -0.400458       -10.8970
   4   1.0000      -0.235216        -6.4005
   5   0.0000      -0.000474        -0.0129
   6   0.0000       0.034983         0.9519
   7   0.0000       0.038130         1.0376
   8   0.0000       0.047290         1.2868
   9   0.0000       0.078946         2.1482

                 SPIN DOWN ORBITALS
  NO   OCC          E(Eh)            E(eV)
   0   1.0000     -10.179795      -277.0063
   1   1.0000      -0.639645       -17.4056
   2   1.0000      -0.420782       -11.4501
   3   1.0000      -0.391321       -10.6484
   4   0.0000      -0.077190        -2.1004
   5   0.0000       0.003050         0.0830
   6   0.0000       0.034723         0.9449
   7   0.0000       0.037811         1.0289
   8   0.0000       0.060629         1.6498

MULLIKEN ATOMIC CHARGES AND SPIN POPULATIONS
--------------------------------------------
   0 C :   -0.428640    1.109905
   1 H :    0.144192   -0.039360
   2 H :    0.150750   -0.032752
   3 H :    0.133698   -0.037793
Sum of atomic charges         :    0.0000000

LOEWDIN ATOMIC CHARGES AND SPIN POPULATIONS
-------------------------------------------
   0 C :   -0.178046    0.922349
   1 H :    0.078318    0.019253
   2 H :    0.036193    0.034236
   3 H :    0.063536    0.024161

  Mayer bond orders larger than 0.100000
B(  0-C ,  1-H ) :   0.9713 B(  0-C ,  2-H ) :   0.9723 B(  0-C ,  3-H ) :   0.9745

FINAL SINGLE POINT ENERGY       -39.822598041115

DIPOLE MOMENT
-------------
                                X             Y             Z
Electronic contribution:     -0.08105      -0.11919       0.02582
Nuclear contribution   :      0.09418       0.12083      -0.04833
                        -----------------------------------------
Total Dipole Moment    :      0.01313       0.00164      -0.02252
                        -----------------------------------------
Magnitude (a.u.)       :      0.02612
Magnitude (Debye)      :      0.06638

Rotational constants in cm-1:     9.755595     8.293560     4.487404
Rotational constants in MHz : 292465.381144 248634.661821 134528.972916

                             ****ORCA TERMINATED NORMALLY****
TOTAL RUN TIME: 0 days 0 hours 0 minutes 30 seconds 810 msec
