                         Program Version 5.0.3 -  RELEASE  -
|  1> !B3LYP EPR-III Autoaux
|  2> !PAL4
|  3>
|  4> * xyz 0 2
|  5>  C    -43.0932147899    -63.5038759410    -21.4433387763
|  6>  H    -42.1353227838    -62.9701474969    -21.4069768500
|  7>  H    -44.0523690520    -62.8439209855    -21.2031019417
|  8>  H    -43.2162084313    -64.5818128693    -21.5799862355
|  9> *
| 10>
| 11> %EPRNMR
| 12>         GTENSOR   TRUE
| 13>         NUCLEI    = ALL H {AISO, ADIP, AORB}
| 14>         NUCLEI    = ALL C {AISO, ADIP, AORB}
| 15> END
| 16>
| 17>
| 18>                          ****END OF INPUT****

CARTESIAN COORDINATES (ANGSTROEM)
---------------------------------
  C    -43.093215  -63.503876  -21.443339
  H    -42.135323  -62.970147  -21.406977
  H    -44.052369  -62.843921  -21.203102
  H    -43.216208  -64.581813  -21.579986

 Total Charge           Charge          ....    0
 Multiplicity           Mult            ....    2
 Number of Electrons    NEL             ....    9
 Basis Dimension        Dim             ....   73

ORBITAL ENERGIES
----------------
                 SPIN UP ORBITALS
  NO   OCC          E(Eh)            E(eV)
   0   1.0000     -10.197922      -277.4996
   1   1.0000      -0.676321       -18.4036
   2   1.0000      -0.428515       -11.6605
   3   1.0000      -0.397709       -10.8222
   4   1.0000      -0.235470        -6.4075
   5   0.0000      -0.001013        -0.0276
   6   0.0000       0.035364         0.9623
   7   0.0000       0.037707         1.0261
   8   0.0000       0.047216         1.2848
   9   0.0000       0.079451         2.1620

                 SPIN DOWN ORBITALS
  NO   OCC          E(Eh)            E(eV)
   0   1.0000     -10.183194      -277.0988
   1   1.0000      -0.636310       -17.3149
   2   1.0000      -0.419299       -11.4097
   3   1.0000      -0.388923       -10.5831
   4   0.0000      -0.077187        -2.1004
   5   0.0000       0.002656         0.0723
   6   0.0000       0.035068         0.9543
   7   0.0000       0.037496         1.0203
   8   0.0000       0.060577         1.6484

MULLIKEN ATOMIC CHARGES AND SPIN POPULATIONS
--------------------------------------------
   0 C :   -0.426474    1.111556
   1 H :    0.146245   -0.035254
   2 H :    0.131469   -0.041768
   3 H :    0.148760   -0.034535
Sum of atomic charges         :   -0.0000000

LOEWDIN ATOMIC CHARGES AND SPIN POPULATIONS
-------------------------------------------
   0 C :   -0.186140    0.927280
   1 H :    0.050655    0.028720
   2 H :    0.085956    0.014731
   3 H :    0.049529    0.029269

  Mayer bond orders larger than 0.100000
B(  0-C ,  1-H ) :   0.9707 B(  0-C ,  2-H ) :   0.9724 B(  0-C ,  3-H ) :   0.9702

FINAL SINGLE POINT ENERGY       -39.821605795814

DIPOLE MOMENT
-------------
                                X             Y             Z
Electronic contribution:      0.10487      -0.09436      -0.07790
Nuclear contribution   :     -0.09313       0.08675       0.10489
                        -----------------------------------------
Total Dipole Moment    :      0.01174      -0.00761       0.02699
                        -----------------------------------------
Magnitude (a.u.)       :      0.03040
Magnitude (Debye)      :      0.07727

Rotational constants in cm-1:     8.958480     8.595492     4.393518
Rotational constants in MHz : 268568.476716 257686.374769 131714.347242

                             ****ORCA TERMINATED NORMALLY****
TOTAL RUN TIME: 0 days 0 hours 0 minutes 19 seconds 659 msec
