                         Program Version 5.0.3 -  RELEASE  -
|  1> !B3LYP EPR-III Autoaux
|  2> !PAL4
|  3>
|  4> * xyz 0 2
|  5>  C    -80.5530085311   -107.0723718503    -30.5112568538
|  6>  H    -80.5076537287   -105.9733123463    -30.4040312273
|  7>  H    -81.6017568176   -107.4664376325    -30.5907326669
|  8>  H    -79.6078348700   -107.6657718155    -30.5185588788
|  9> *
| 10>
| 11> %EPRNMR
| 12>         GTENSOR   TRUE
| 13>         NUCLEI    = ALL H {AISO, ADIP, AORB}
| 14>         NUCLEI    = ALL C {AISO, ADIP, AORB}
| 15> END
| 16>
| 17>
| 18>                          ****END OF INPUT****

CARTESIAN COORDINATES (ANGSTROEM)
---------------------------------
  C    -80.553009  -107.072372  -30.511257
  H    -80.507654  -105.973312  -30.404031
  H    -81.601757  -107.466438  -30.590733
  H    -79.607835  -107.665772  -30.518559

 Total Charge           Charge          ....    0
 Multiplicity           Mult            ....    2
 Number of Electrons    NEL             ....    9
 Basis Dimension        Dim             ....   73

ORBITAL ENERGIES
----------------
                 SPIN UP ORBITALS
  NO   OCC          E(Eh)            E(eV)
   0   1.0000     -10.194505      -277.4066
   1   1.0000      -0.678498       -18.4629
   2   1.0000      -0.425201       -11.5703
   3   1.0000      -0.405158       -11.0249
   4   1.0000      -0.234827        -6.3900
   5   0.0000      -0.000383        -0.0104
   6   0.0000       0.035303         0.9607
   7   0.0000       0.037925         1.0320
   8   0.0000       0.047318         1.2876
   9   0.0000       0.080965         2.2032

                 SPIN DOWN ORBITALS
  NO   OCC          E(Eh)            E(eV)
   0   1.0000     -10.179868      -277.0083
   1   1.0000      -0.638662       -17.3789
   2   1.0000      -0.416323       -11.3287
   3   1.0000      -0.395802       -10.7703
   4   0.0000      -0.076967        -2.0944
   5   0.0000       0.003139         0.0854
   6   0.0000       0.035025         0.9531
   7   0.0000       0.037578         1.0225
   8   0.0000       0.060679         1.6512

MULLIKEN ATOMIC CHARGES AND SPIN POPULATIONS
--------------------------------------------
   0 C :   -0.428574    1.110226
   1 H :    0.137329   -0.036527
   2 H :    0.142960   -0.037527
   3 H :    0.148285   -0.036172
Sum of atomic charges         :   -0.0000000

LOEWDIN ATOMIC CHARGES AND SPIN POPULATIONS
-------------------------------------------
   0 C :   -0.180753    0.922867
   1 H :    0.054298    0.027506
   2 H :    0.064223    0.024324
   3 H :    0.062232    0.025303

  Mayer bond orders larger than 0.100000
B(  0-C ,  1-H ) :   0.9738 B(  0-C ,  2-H ) :   0.9724 B(  0-C ,  3-H ) :   0.9711

FINAL SINGLE POINT ENERGY       -39.825074797342

DIPOLE MOMENT
-------------
                                X             Y             Z
Electronic contribution:      0.04167      -0.07185      -0.01083
Nuclear contribution   :     -0.04363       0.08364       0.01533
                        -----------------------------------------
Total Dipole Moment    :     -0.00196       0.01179       0.00449
                        -----------------------------------------
Magnitude (a.u.)       :      0.01277
Magnitude (Debye)      :      0.03245

Rotational constants in cm-1:     9.829627     8.254313     4.486783
Rotational constants in MHz : 294684.810606 247458.088497 134510.361842

                             ****ORCA TERMINATED NORMALLY****
TOTAL RUN TIME: 0 days 0 hours 0 minutes 26 seconds 716 msec
