                         Program Version 5.0.3 -  RELEASE  -
|  1> !B3LYP EPR-III Autoaux
|  2> !PAL4
|  3>
|  4> * xyz 0 2
|  5>  C    -26.6662470885    -45.0746648174    -17.2725849830
|  6>  H    -27.6093686098    -45.6534336771    -17.3391085853
|  7>  H    -25.6856525290    -45.3378371899    -17.5510616060
|  8>  H    -26.8116242175    -44.0417116183    -16.9982142897
|  9> *
| 10>
| 11> %EPRNMR
| 12>         GTENSOR   TRUE
| 13>         NUCLEI    = ALL H {AISO, ADIP, AORB}
| 14>         NUCLEI    = ALL C {AISO, ADIP, AORB}
| 15> END
| 16>
| 17>
| 18>                          ****END OF INPUT****

CARTESIAN COORDINATES (ANGSTROEM)
---------------------------------
  C    -26.666247  -45.074665  -17.272585
  H    -27.609369  -45.653434  -17.339109
  H    -25.685653  -45.337837  -17.551062
  H    -26.811624  -44.041712  -16.998214

 Total Charge           Charge          ....    0
 Multiplicity           Mult            ....    2
 Number of Electrons    NEL             ....    9
 Basis Dimension        Dim             ....   73

ORBITAL ENERGIES
----------------
                 SPIN UP ORBITALS
  NO   OCC          E(Eh)            E(eV)
   0   1.0000     -10.184199      -277.1262
   1   1.0000      -0.688399       -18.7323
   2   1.0000      -0.437096       -11.8940
   3   1.0000      -0.407408       -11.0861
   4   1.0000      -0.235297        -6.4028
   5   0.0000       0.000899         0.0245
   6   0.0000       0.035041         0.9535
   7   0.0000       0.038413         1.0453
   8   0.0000       0.047476         1.2919
   9   0.0000       0.083743         2.2788

                 SPIN DOWN ORBITALS
  NO   OCC          E(Eh)            E(eV)
   0   1.0000     -10.169754      -276.7331
   1   1.0000      -0.649098       -17.6629
   2   1.0000      -0.427770       -11.6402
   3   1.0000      -0.397671       -10.8212
   4   0.0000      -0.077662        -2.1133
   5   0.0000       0.004018         0.1093
   6   0.0000       0.034703         0.9443
   7   0.0000       0.037999         1.0340
   8   0.0000       0.060709         1.6520

MULLIKEN ATOMIC CHARGES AND SPIN POPULATIONS
--------------------------------------------
   0 C :   -0.428575    1.102882
   1 H :    0.145041   -0.036088
   2 H :    0.149643   -0.032043
   3 H :    0.133890   -0.034751
Sum of atomic charges         :   -0.0000000

LOEWDIN ATOMIC CHARGES AND SPIN POPULATIONS
-------------------------------------------
   0 C :   -0.150048    0.907257
   1 H :    0.064722    0.026019
   2 H :    0.037504    0.035279
   3 H :    0.047822    0.031445

  Mayer bond orders larger than 0.100000
B(  0-C ,  1-H ) :   0.9769 B(  0-C ,  2-H ) :   0.9774 B(  0-C ,  3-H ) :   0.9792

FINAL SINGLE POINT ENERGY       -39.825566301758

DIPOLE MOMENT
-------------
                                X             Y             Z
Electronic contribution:      0.07392      -0.11492       0.02164
Nuclear contribution   :     -0.08087       0.14316      -0.05294
                        -----------------------------------------
Total Dipole Moment    :     -0.00696       0.02824      -0.03129
                        -----------------------------------------
Magnitude (a.u.)       :      0.04272
Magnitude (Debye)      :      0.10858

Rotational constants in cm-1:    10.641907     8.663113     4.788893
Rotational constants in MHz : 319036.351732 259713.584371 143567.411478

                             ****ORCA TERMINATED NORMALLY****
TOTAL RUN TIME: 0 days 0 hours 0 minutes 27 seconds 289 msec
