                         Program Version 5.0.3 -  RELEASE  -
|  1> !B3LYP EPR-III Autoaux
|  2> !PAL4
|  3>
|  4> * xyz 0 2
|  5>  C    -50.0017296189    -71.2023212004    -23.1603497718
|  6>  H    -48.9408186945    -70.9180634306    -23.2075379761
|  7>  H    -50.9153561009    -70.4855036606    -22.9954179569
|  8>  H    -50.2066466057    -72.2563343827    -23.2790101680
|  9> *
| 10>
| 11> %EPRNMR
| 12>         GTENSOR   TRUE
| 13>         NUCLEI    = ALL H {AISO, ADIP, AORB}
| 14>         NUCLEI    = ALL C {AISO, ADIP, AORB}
| 15> END
| 16>
| 17>
| 18>                          ****END OF INPUT****

CARTESIAN COORDINATES (ANGSTROEM)
---------------------------------
  C    -50.001730  -71.202321  -23.160350
  H    -48.940819  -70.918063  -23.207538
  H    -50.915356  -70.485504  -22.995418
  H    -50.206647  -72.256334  -23.279010

 Total Charge           Charge          ....    0
 Multiplicity           Mult            ....    2
 Number of Electrons    NEL             ....    9
 Basis Dimension        Dim             ....   73

ORBITAL ENERGIES
----------------
                 SPIN UP ORBITALS
  NO   OCC          E(Eh)            E(eV)
   0   1.0000     -10.194971      -277.4193
   1   1.0000      -0.678758       -18.4699
   2   1.0000      -0.420018       -11.4293
   3   1.0000      -0.408939       -11.1278
   4   1.0000      -0.234849        -6.3906
   5   0.0000      -0.000754        -0.0205
   6   0.0000       0.035528         0.9668
   7   0.0000       0.037578         1.0226
   8   0.0000       0.047299         1.2871
   9   0.0000       0.076841         2.0910

                 SPIN DOWN ORBITALS
  NO   OCC          E(Eh)            E(eV)
   0   1.0000     -10.180311      -277.0203
   1   1.0000      -0.638943       -17.3865
   2   1.0000      -0.411089       -11.1863
   3   1.0000      -0.399599       -10.8736
   4   0.0000      -0.076912        -2.0929
   5   0.0000       0.002855         0.0777
   6   0.0000       0.035309         0.9608
   7   0.0000       0.037244         1.0135
   8   0.0000       0.060666         1.6508

MULLIKEN ATOMIC CHARGES AND SPIN POPULATIONS
--------------------------------------------
   0 C :   -0.428529    1.110970
   1 H :    0.145695   -0.035582
   2 H :    0.143046   -0.040551
   3 H :    0.139788   -0.034837
Sum of atomic charges         :    0.0000000

LOEWDIN ATOMIC CHARGES AND SPIN POPULATIONS
-------------------------------------------
   0 C :   -0.180755    0.923661
   1 H :    0.053598    0.028198
   2 H :    0.084888    0.016487
   3 H :    0.042269    0.031654

  Mayer bond orders larger than 0.100000
B(  0-C ,  1-H ) :   0.9721 B(  0-C ,  2-H ) :   0.9704 B(  0-C ,  3-H ) :   0.9732

FINAL SINGLE POINT ENERGY       -39.822555333414

DIPOLE MOMENT
-------------
                                X             Y             Z
Electronic contribution:      0.04622       0.02106      -0.00155
Nuclear contribution   :     -0.04319      -0.03968      -0.00069
                        -----------------------------------------
Total Dipole Moment    :      0.00302      -0.01861      -0.00224
                        -----------------------------------------
Magnitude (a.u.)       :      0.01899
Magnitude (Debye)      :      0.04827

Rotational constants in cm-1:    10.050377     8.013705     4.458614
Rotational constants in MHz : 301302.721552 240244.830318 133665.895482

                             ****ORCA TERMINATED NORMALLY****
TOTAL RUN TIME: 0 days 0 hours 0 minutes 18 seconds 852 msec
