                         Program Version 5.0.3 -  RELEASE  -
|  1> !B3LYP EPR-III Autoaux
|  2> !PAL4
|  3>
|  4> * xyz 0 2
|  5>  C    -75.9653971873   -101.4618176744    -29.4057753346
|  6>  H    -76.8398006479   -102.1420114470    -29.4675752221
|  7>  H    -74.9509098595   -101.9542174241    -29.4016789011
|  8>  H    -76.3652802248   -100.4024379922    -29.3212869756
|  9> *
| 10>
| 11> %EPRNMR
| 12>         GTENSOR   TRUE
| 13>         NUCLEI    = ALL H {AISO, ADIP, AORB}
| 14>         NUCLEI    = ALL C {AISO, ADIP, AORB}
| 15> END
| 16>
| 17>
| 18>                          ****END OF INPUT****

CARTESIAN COORDINATES (ANGSTROEM)
---------------------------------
  C    -75.965397  -101.461818  -29.405775
  H    -76.839801  -102.142011  -29.467575
  H    -74.950910  -101.954217  -29.401679
  H    -76.365280  -100.402438  -29.321287

 Total Charge           Charge          ....    0
 Multiplicity           Mult            ....    2
 Number of Electrons    NEL             ....    9
 Basis Dimension        Dim             ....   73

ORBITAL ENERGIES
----------------
                 SPIN UP ORBITALS
  NO   OCC          E(Eh)            E(eV)
   0   1.0000     -10.197292      -277.4824
   1   1.0000      -0.677219       -18.4281
   2   1.0000      -0.432460       -11.7678
   3   1.0000      -0.391692       -10.6585
   4   1.0000      -0.235093        -6.3972
   5   0.0000      -0.001273        -0.0347
   6   0.0000       0.033631         0.9152
   7   0.0000       0.039178         1.0661
   8   0.0000       0.047236         1.2854
   9   0.0000       0.070760         1.9255

                 SPIN DOWN ORBITALS
  NO   OCC          E(Eh)            E(eV)
   0   1.0000     -10.182577      -277.0820
   1   1.0000      -0.637439       -17.3456
   2   1.0000      -0.423917       -11.5354
   3   1.0000      -0.382006       -10.3949
   4   0.0000      -0.077039        -2.0963
   5   0.0000       0.002438         0.0663
   6   0.0000       0.033422         0.9095
   7   0.0000       0.038823         1.0564
   8   0.0000       0.060610         1.6493

MULLIKEN ATOMIC CHARGES AND SPIN POPULATIONS
--------------------------------------------
   0 C :   -0.435306    1.114306
   1 H :    0.130361   -0.037466
   2 H :    0.155571   -0.037231
   3 H :    0.149374   -0.039609
Sum of atomic charges         :   -0.0000000

LOEWDIN ATOMIC CHARGES AND SPIN POPULATIONS
-------------------------------------------
   0 C :   -0.192006    0.927533
   1 H :    0.053054    0.027181
   2 H :    0.068388    0.023207
   3 H :    0.070564    0.022079

  Mayer bond orders larger than 0.100000
B(  0-C ,  1-H ) :   0.9744 B(  0-C ,  2-H ) :   0.9686 B(  0-C ,  3-H ) :   0.9707

FINAL SINGLE POINT ENERGY       -39.818960496248

DIPOLE MOMENT
-------------
                                X             Y             Z
Electronic contribution:      0.16958       0.06592      -0.01051
Nuclear contribution   :     -0.19471      -0.08485       0.02007
                        -----------------------------------------
Total Dipole Moment    :     -0.02513      -0.01893       0.00957
                        -----------------------------------------
Magnitude (a.u.)       :      0.03289
Magnitude (Debye)      :      0.08359

Rotational constants in cm-1:    10.714173     7.512342     4.417116
Rotational constants in MHz : 321202.813627 225214.349460 132421.809561

                             ****ORCA TERMINATED NORMALLY****
TOTAL RUN TIME: 0 days 0 hours 0 minutes 22 seconds 88 msec
