                         Program Version 5.0.3 -  RELEASE  -
|  1> !B3LYP EPR-III Autoaux
|  2> !PAL4
|  3>
|  4> * xyz 0 2
|  5>  C     -6.3681945606    -22.1843373537    -12.0409963695
|  6>  H     -6.0150011093    -21.1531976365    -12.4036097554
|  7>  H     -7.0747943124    -22.0539392119    -11.2440112889
|  8>  H     -6.1308486480    -23.1354540482    -12.4675481723
|  9> *
| 10>
| 11> %EPRNMR
| 12>         GTENSOR   TRUE
| 13>         NUCLEI    = ALL H {AISO, ADIP, AORB}
| 14>         NUCLEI    = ALL C {AISO, ADIP, AORB}
| 15> END
| 16>
| 17>
| 18>                          ****END OF INPUT****

CARTESIAN COORDINATES (ANGSTROEM)
---------------------------------
  C     -6.368195  -22.184337  -12.040996
  H     -6.015001  -21.153198  -12.403610
  H     -7.074794  -22.053939  -11.244011
  H     -6.130849  -23.135454  -12.467548

 Total Charge           Charge          ....    0
 Multiplicity           Mult            ....    2
 Number of Electrons    NEL             ....    9
 Basis Dimension        Dim             ....   73

ORBITAL ENERGIES
----------------
                 SPIN UP ORBITALS
  NO   OCC          E(Eh)            E(eV)
   0   1.0000     -10.189301      -277.2650
   1   1.0000      -0.684184       -18.6176
   2   1.0000      -0.437694       -11.9103
   3   1.0000      -0.399954       -10.8833
   4   1.0000      -0.235253        -6.4016
   5   0.0000       0.000221         0.0060
   6   0.0000       0.034670         0.9434
   7   0.0000       0.038567         1.0494
   8   0.0000       0.047376         1.2892
   9   0.0000       0.081033         2.2050

                 SPIN DOWN ORBITALS
  NO   OCC          E(Eh)            E(eV)
   0   1.0000     -10.174755      -276.8692
   1   1.0000      -0.644613       -17.5408
   2   1.0000      -0.428431       -11.6582
   3   1.0000      -0.390550       -10.6274
   4   0.0000      -0.077454        -2.1076
   5   0.0000       0.003536         0.0962
   6   0.0000       0.034364         0.9351
   7   0.0000       0.038206         1.0396
   8   0.0000       0.060660         1.6506

MULLIKEN ATOMIC CHARGES AND SPIN POPULATIONS
--------------------------------------------
   0 C :   -0.429199    1.106747
   1 H :    0.136651   -0.039703
   2 H :    0.139987   -0.034788
   3 H :    0.152562   -0.032255
Sum of atomic charges         :   -0.0000000

LOEWDIN ATOMIC CHARGES AND SPIN POPULATIONS
-------------------------------------------
   0 C :   -0.163341    0.914670
   1 H :    0.077253    0.020189
   2 H :    0.042633    0.032432
   3 H :    0.043455    0.032709

  Mayer bond orders larger than 0.100000
B(  0-C ,  1-H ) :   0.9761 B(  0-C ,  2-H ) :   0.9762 B(  0-C ,  3-H ) :   0.9742

FINAL SINGLE POINT ENERGY       -39.823553360706

DIPOLE MOMENT
-------------
                                X             Y             Z
Electronic contribution:      0.05429      -0.15336      -0.00897
Nuclear contribution   :     -0.08698       0.15771       0.00586
                        -----------------------------------------
Total Dipole Moment    :     -0.03270       0.00435      -0.00311
                        -----------------------------------------
Magnitude (a.u.)       :      0.03313
Magnitude (Debye)      :      0.08421

Rotational constants in cm-1:    10.409174     8.337629     4.635870
Rotational constants in MHz : 312059.181501 249955.824417 138979.880554

                             ****ORCA TERMINATED NORMALLY****
TOTAL RUN TIME: 0 days 0 hours 0 minutes 24 seconds 603 msec
