                         Program Version 5.0.3 -  RELEASE  -
|  1> !B3LYP EPR-III Autoaux
|  2> !PAL4
|  3>
|  4> * xyz 0 2
|  5>  C    -44.6695315337    -65.2318751296    -21.8305316258
|  6>  H    -44.9192634453    -64.2123708886    -21.8153214853
|  7>  H    -45.3070697230    -66.0837245452    -21.8348145004
|  8>  H    -43.6683476666    -65.5407147829    -21.8010625805
|  9> *
| 10>
| 11> %EPRNMR
| 12>         GTENSOR   TRUE
| 13>         NUCLEI    = ALL H {AISO, ADIP, AORB}
| 14>         NUCLEI    = ALL C {AISO, ADIP, AORB}
| 15> END
| 16>
| 17>
| 18>                          ****END OF INPUT****

CARTESIAN COORDINATES (ANGSTROEM)
---------------------------------
  C    -44.669532  -65.231875  -21.830532
  H    -44.919263  -64.212371  -21.815321
  H    -45.307070  -66.083725  -21.834815
  H    -43.668348  -65.540715  -21.801063

 Total Charge           Charge          ....    0
 Multiplicity           Mult            ....    2
 Number of Electrons    NEL             ....    9
 Basis Dimension        Dim             ....   73

ORBITAL ENERGIES
----------------
                 SPIN UP ORBITALS
  NO   OCC          E(Eh)            E(eV)
   0   1.0000     -10.176159      -276.9074
   1   1.0000      -0.695390       -18.9225
   2   1.0000      -0.444758       -12.1025
   3   1.0000      -0.411326       -11.1927
   4   1.0000      -0.234743        -6.3877
   5   0.0000       0.001683         0.0458
   6   0.0000       0.034974         0.9517
   7   0.0000       0.038557         1.0492
   8   0.0000       0.047613         1.2956
   9   0.0000       0.088879         2.4185

                 SPIN DOWN ORBITALS
  NO   OCC          E(Eh)            E(eV)
   0   1.0000     -10.161874      -276.5187
   1   1.0000      -0.656301       -17.8589
   2   1.0000      -0.435234       -11.8433
   3   1.0000      -0.401292       -10.9197
   4   0.0000      -0.077642        -2.1127
   5   0.0000       0.004598         0.1251
   6   0.0000       0.034587         0.9412
   7   0.0000       0.038086         1.0364
   8   0.0000       0.060794         1.6543

MULLIKEN ATOMIC CHARGES AND SPIN POPULATIONS
--------------------------------------------
   0 C :   -0.429971    1.099200
   1 H :    0.150801   -0.031437
   2 H :    0.142536   -0.034321
   3 H :    0.136634   -0.033442
Sum of atomic charges         :    0.0000000

LOEWDIN ATOMIC CHARGES AND SPIN POPULATIONS
-------------------------------------------
   0 C :   -0.127171    0.895802
   1 H :    0.041331    0.035138
   2 H :    0.047786    0.032997
   3 H :    0.038055    0.036063

  Mayer bond orders larger than 0.100000
B(  0-C ,  1-H ) :   0.9803 B(  0-C ,  2-H ) :   0.9817 B(  0-C ,  3-H ) :   0.9820

FINAL SINGLE POINT ENERGY       -39.824688993944

DIPOLE MOMENT
-------------
                                X             Y             Z
Electronic contribution:     -0.06958       0.09413      -0.01860
Nuclear contribution   :      0.08538      -0.10582       0.03028
                        -----------------------------------------
Total Dipole Moment    :      0.01580      -0.01169       0.01167
                        -----------------------------------------
Magnitude (a.u.)       :      0.02286
Magnitude (Debye)      :      0.05810

Rotational constants in cm-1:    11.374488     8.988791     5.022174
Rotational constants in MHz : 340998.563878 269477.182110 150560.979086

                             ****ORCA TERMINATED NORMALLY****
TOTAL RUN TIME: 0 days 0 hours 0 minutes 21 seconds 754 msec
