                         Program Version 5.0.3 -  RELEASE  -
|  1> !B3LYP EPR-III Autoaux
|  2> !PAL4
|  3>
|  4> * xyz 0 2
|  5>  C    -14.2060975377    -31.0405818750    -14.0760641885
|  6>  H    -14.1995320901    -29.9460779163    -14.1213945483
|  7>  H    -14.9500698251    -31.6709250634    -14.4507524586
|  8>  H    -13.3810366307    -31.3962925015    -13.5011599765
|  9> *
| 10>
| 11> %EPRNMR
| 12>         GTENSOR   TRUE
| 13>         NUCLEI    = ALL H {AISO, ADIP, AORB}
| 14>         NUCLEI    = ALL C {AISO, ADIP, AORB}
| 15> END
| 16>
| 17>
| 18>                          ****END OF INPUT****

CARTESIAN COORDINATES (ANGSTROEM)
---------------------------------
  C    -14.206098  -31.040582  -14.076064
  H    -14.199532  -29.946078  -14.121395
  H    -14.950070  -31.670925  -14.450752
  H    -13.381037  -31.396293  -13.501160

 Total Charge           Charge          ....    0
 Multiplicity           Mult            ....    2
 Number of Electrons    NEL             ....    9
 Basis Dimension        Dim             ....   73

ORBITAL ENERGIES
----------------
                 SPIN UP ORBITALS
  NO   OCC          E(Eh)            E(eV)
   0   1.0000     -10.180847      -277.0349
   1   1.0000      -0.691114       -18.8062
   2   1.0000      -0.441676       -12.0186
   3   1.0000      -0.408343       -11.1116
   4   1.0000      -0.235022        -6.3953
   5   0.0000       0.001307         0.0356
   6   0.0000       0.035097         0.9550
   7   0.0000       0.038412         1.0453
   8   0.0000       0.047533         1.2934
   9   0.0000       0.088011         2.3949

                 SPIN DOWN ORBITALS
  NO   OCC          E(Eh)            E(eV)
   0   1.0000     -10.166473      -276.6438
   1   1.0000      -0.651843       -17.7375
   2   1.0000      -0.432158       -11.7596
   3   1.0000      -0.398650       -10.8478
   4   0.0000      -0.077624        -2.1123
   5   0.0000       0.004328         0.1178
   6   0.0000       0.034726         0.9449
   7   0.0000       0.037981         1.0335
   8   0.0000       0.060745         1.6530

MULLIKEN ATOMIC CHARGES AND SPIN POPULATIONS
--------------------------------------------
   0 C :   -0.428421    1.101103
   1 H :    0.138884   -0.035990
   2 H :    0.151112   -0.030876
   3 H :    0.138425   -0.034237
Sum of atomic charges         :   -0.0000000

LOEWDIN ATOMIC CHARGES AND SPIN POPULATIONS
-------------------------------------------
   0 C :   -0.139575    0.902337
   1 H :    0.059402    0.028184
   2 H :    0.035318    0.036418
   3 H :    0.044855    0.033061

  Mayer bond orders larger than 0.100000
B(  0-C ,  1-H ) :   0.9797 B(  0-C ,  2-H ) :   0.9784 B(  0-C ,  3-H ) :   0.9799

FINAL SINGLE POINT ENERGY       -39.825939763400

DIPOLE MOMENT
-------------
                                X             Y             Z
Electronic contribution:     -0.06801      -0.07869      -0.08645
Nuclear contribution   :      0.06570       0.08128       0.11608
                        -----------------------------------------
Total Dipole Moment    :     -0.00231       0.00259       0.02964
                        -----------------------------------------
Magnitude (a.u.)       :      0.02984
Magnitude (Debye)      :      0.07585

Rotational constants in cm-1:    10.662654     8.991638     4.884528
Rotational constants in MHz : 319658.337940 269562.539826 146434.462006

                             ****ORCA TERMINATED NORMALLY****
TOTAL RUN TIME: 0 days 0 hours 0 minutes 24 seconds 897 msec
