                         Program Version 5.0.3 -  RELEASE  -
|  1> !B3LYP EPR-III Autoaux
|  2> !PAL4
|  3>
|  4> * xyz 0 2
|  5>  C    -74.4071307137    -99.5333215139    -29.0219074328
|  6>  H    -75.2845477204    -98.9507418759    -28.9960007236
|  7>  H    -74.4619022677   -100.6422793095    -29.1463590548
|  8>  H    -73.3959116632    -99.2239306190    -28.9779606217
|  9> *
| 10>
| 11> %EPRNMR
| 12>         GTENSOR   TRUE
| 13>         NUCLEI    = ALL H {AISO, ADIP, AORB}
| 14>         NUCLEI    = ALL C {AISO, ADIP, AORB}
| 15> END
| 16>
| 17>
| 18>                          ****END OF INPUT****

CARTESIAN COORDINATES (ANGSTROEM)
---------------------------------
  C    -74.407131  -99.533322  -29.021907
  H    -75.284548  -98.950742  -28.996001
  H    -74.461902  -100.642279  -29.146359
  H    -73.395912  -99.223931  -28.977961

 Total Charge           Charge          ....    0
 Multiplicity           Mult            ....    2
 Number of Electrons    NEL             ....    9
 Basis Dimension        Dim             ....   73

ORBITAL ENERGIES
----------------
                 SPIN UP ORBITALS
  NO   OCC          E(Eh)            E(eV)
   0   1.0000     -10.183217      -277.0994
   1   1.0000      -0.689315       -18.7572
   2   1.0000      -0.443871       -12.0784
   3   1.0000      -0.403078       -10.9683
   4   1.0000      -0.234977        -6.3941
   5   0.0000       0.001059         0.0288
   6   0.0000       0.034752         0.9457
   7   0.0000       0.038607         1.0505
   8   0.0000       0.047486         1.2922
   9   0.0000       0.086949         2.3660

                 SPIN DOWN ORBITALS
  NO   OCC          E(Eh)            E(eV)
   0   1.0000     -10.168799      -276.7071
   1   1.0000      -0.649910       -17.6850
   2   1.0000      -0.434394       -11.8205
   3   1.0000      -0.393530       -10.7085
   4   0.0000      -0.077541        -2.1100
   5   0.0000       0.004152         0.1130
   6   0.0000       0.034394         0.9359
   7   0.0000       0.038196         1.0394
   8   0.0000       0.060717         1.6522

MULLIKEN ATOMIC CHARGES AND SPIN POPULATIONS
--------------------------------------------
   0 C :   -0.429029    1.103174
   1 H :    0.152056   -0.031682
   2 H :    0.131499   -0.037615
   3 H :    0.145474   -0.033877
Sum of atomic charges         :    0.0000000

LOEWDIN ATOMIC CHARGES AND SPIN POPULATIONS
-------------------------------------------
   0 C :   -0.145654    0.905660
   1 H :    0.038956    0.034938
   2 H :    0.066353    0.025088
   3 H :    0.040344    0.034314

  Mayer bond orders larger than 0.100000
B(  0-C ,  1-H ) :   0.9773 B(  0-C ,  2-H ) :   0.9799 B(  0-C ,  3-H ) :   0.9784

FINAL SINGLE POINT ENERGY       -39.824962334196

DIPOLE MOMENT
-------------
                                X             Y             Z
Electronic contribution:     -0.05050       0.15774       0.03076
Nuclear contribution   :      0.05923      -0.16263      -0.04092
                        -----------------------------------------
Total Dipole Moment    :      0.00873      -0.00489      -0.01016
                        -----------------------------------------
Magnitude (a.u.)       :      0.01426
Magnitude (Debye)      :      0.03624

Rotational constants in cm-1:    10.503615     8.882611     4.813541
Rotational constants in MHz : 314890.448181 266293.978168 144306.329232

                             ****ORCA TERMINATED NORMALLY****
TOTAL RUN TIME: 0 days 0 hours 0 minutes 22 seconds 708 msec
