                         Program Version 5.0.3 -  RELEASE  -
|  1> !B3LYP EPR-III Autoaux
|  2> !PAL4
|  3>
|  4> * xyz 0 2
|  5>  C    -88.3202853477   -116.6467301995    -32.3104328245
|  6>  H    -88.5398806161   -115.5888315506    -32.2243394423
|  7>  H    -89.1791993320   -117.2973985469    -32.3987434057
|  8>  H    -87.2020925717   -116.9828210800    -32.2792793840
|  9> *
| 10>
| 11> %EPRNMR
| 12>         GTENSOR   TRUE
| 13>         NUCLEI    = ALL H {AISO, ADIP, AORB}
| 14>         NUCLEI    = ALL C {AISO, ADIP, AORB}
| 15> END
| 16>
| 17>
| 18>                          ****END OF INPUT****

CARTESIAN COORDINATES (ANGSTROEM)
---------------------------------
  C    -88.320285  -116.646730  -32.310433
  H    -88.539881  -115.588832  -32.224339
  H    -89.179199  -117.297399  -32.398743
  H    -87.202093  -116.982821  -32.279279

 Total Charge           Charge          ....    0
 Multiplicity           Mult            ....    2
 Number of Electrons    NEL             ....    9
 Basis Dimension        Dim             ....   73

ORBITAL ENERGIES
----------------
                 SPIN UP ORBITALS
  NO   OCC          E(Eh)            E(eV)
   0   1.0000     -10.193096      -277.3683
   1   1.0000      -0.680418       -18.5151
   2   1.0000      -0.422038       -11.4842
   3   1.0000      -0.409790       -11.1509
   4   1.0000      -0.234842        -6.3904
   5   0.0000      -0.000402        -0.0109
   6   0.0000       0.035653         0.9702
   7   0.0000       0.037517         1.0209
   8   0.0000       0.047333         1.2880
   9   0.0000       0.078437         2.1344

                 SPIN DOWN ORBITALS
  NO   OCC          E(Eh)            E(eV)
   0   1.0000     -10.178476      -276.9704
   1   1.0000      -0.640674       -17.4336
   2   1.0000      -0.412914       -11.2360
   3   1.0000      -0.400525       -10.8988
   4   0.0000      -0.076992        -2.0951
   5   0.0000       0.003113         0.0847
   6   0.0000       0.035412         0.9636
   7   0.0000       0.037171         1.0115
   8   0.0000       0.060679         1.6512

MULLIKEN ATOMIC CHARGES AND SPIN POPULATIONS
--------------------------------------------
   0 C :   -0.428031    1.109541
   1 H :    0.139399   -0.035017
   2 H :    0.146000   -0.034379
   3 H :    0.142633   -0.040146
Sum of atomic charges         :   -0.0000000

LOEWDIN ATOMIC CHARGES AND SPIN POPULATIONS
-------------------------------------------
   0 C :   -0.174949    0.920757
   1 H :    0.045376    0.030930
   2 H :    0.045706    0.031143
   3 H :    0.083866    0.017171

  Mayer bond orders larger than 0.100000
B(  0-C ,  1-H ) :   0.9742 B(  0-C ,  2-H ) :   0.9732 B(  0-C ,  3-H ) :   0.9714

FINAL SINGLE POINT ENERGY       -39.823474515265

DIPOLE MOMENT
-------------
                                X             Y             Z
Electronic contribution:     -0.04061      -0.04126      -0.01539
Nuclear contribution   :      0.02974       0.05332       0.02169
                        -----------------------------------------
Total Dipole Moment    :     -0.01087       0.01206       0.00630
                        -----------------------------------------
Magnitude (a.u.)       :      0.01742
Magnitude (Debye)      :      0.04428

Rotational constants in cm-1:    10.061197     8.176443     4.511000
Rotational constants in MHz : 301627.088919 245123.591892 135236.370923

                             ****ORCA TERMINATED NORMALLY****
TOTAL RUN TIME: 0 days 0 hours 0 minutes 23 seconds 278 msec
