                         Program Version 5.0.3 -  RELEASE  -
|  1> !B3LYP EPR-III Autoaux
|  2> !PAL4
|  3>
|  4> * xyz 0 2
|  5>  C     -7.4190468052    -23.3613972877    -12.3290845083
|  6>  H     -8.2858824470    -23.0885505575    -12.8203161855
|  7>  H     -7.3175257126    -24.5338347090    -12.3248456784
|  8>  H     -6.8772023139    -22.6029749149    -11.6448104971
|  9> *
| 10>
| 11> %EPRNMR
| 12>         GTENSOR   TRUE
| 13>         NUCLEI    = ALL H {AISO, ADIP, AORB}
| 14>         NUCLEI    = ALL C {AISO, ADIP, AORB}
| 15> END
| 16>
| 17>
| 18>                          ****END OF INPUT****

CARTESIAN COORDINATES (ANGSTROEM)
---------------------------------
  C     -7.419047  -23.361397  -12.329085
  H     -8.285882  -23.088551  -12.820316
  H     -7.317526  -24.533835  -12.324846
  H     -6.877202  -22.602975  -11.644810

 Total Charge           Charge          ....    0
 Multiplicity           Mult            ....    2
 Number of Electrons    NEL             ....    9
 Basis Dimension        Dim             ....   73

ORBITAL ENERGIES
----------------
                 SPIN UP ORBITALS
  NO   OCC          E(Eh)            E(eV)
   0   1.0000     -10.196361      -277.4571
   1   1.0000      -0.680197       -18.5091
   2   1.0000      -0.422411       -11.4944
   3   1.0000      -0.401897       -10.9362
   4   1.0000      -0.237601        -6.4654
   5   0.0000      -0.001553        -0.0423
   6   0.0000       0.035119         0.9557
   7   0.0000       0.038211         1.0398
   8   0.0000       0.047148         1.2830
   9   0.0000       0.073258         1.9935

                 SPIN DOWN ORBITALS
  NO   OCC          E(Eh)            E(eV)
   0   1.0000     -10.181602      -277.0555
   1   1.0000      -0.640933       -17.4407
   2   1.0000      -0.413150       -11.2424
   3   1.0000      -0.392381       -10.6772
   4   0.0000      -0.078467        -2.1352
   5   0.0000       0.002075         0.0565
   6   0.0000       0.034962         0.9514
   7   0.0000       0.037931         1.0321
   8   0.0000       0.060355         1.6423

MULLIKEN ATOMIC CHARGES AND SPIN POPULATIONS
--------------------------------------------
   0 C :   -0.426744    1.106585
   1 H :    0.143442   -0.031053
   2 H :    0.136136   -0.039320
   3 H :    0.147166   -0.036212
Sum of atomic charges         :    0.0000000

LOEWDIN ATOMIC CHARGES AND SPIN POPULATIONS
-------------------------------------------
   0 C :   -0.181067    0.923900
   1 H :    0.016398    0.039739
   2 H :    0.085130    0.016703
   3 H :    0.079538    0.019658

  Mayer bond orders larger than 0.100000
B(  0-C ,  1-H ) :   0.9722 B(  0-C ,  2-H ) :   0.9730 B(  0-C ,  3-H ) :   0.9697

FINAL SINGLE POINT ENERGY       -39.815632872951

DIPOLE MOMENT
-------------
                                X             Y             Z
Electronic contribution:      0.09060       0.10715      -0.10066
Nuclear contribution   :     -0.16749      -0.10580       0.14786
                        -----------------------------------------
Total Dipole Moment    :     -0.07689       0.00134       0.04720
                        -----------------------------------------
Magnitude (a.u.)       :      0.09023
Magnitude (Debye)      :      0.22935

Rotational constants in cm-1:    10.638625     7.481733     4.452128
Rotational constants in MHz : 318937.964242 224296.724549 133471.430881

                             ****ORCA TERMINATED NORMALLY****
TOTAL RUN TIME: 0 days 0 hours 0 minutes 25 seconds 708 msec
