                         Program Version 5.0.3 -  RELEASE  -
|  1> !B3LYP EPR-III Autoaux
|  2> !PAL4
|  3>
|  4> * xyz 0 2
|  5>  C    -59.7248484778    -82.0675858403    -25.6049594082
|  6>  H    -60.5276060537    -81.3213508724    -25.5483700909
|  7>  H    -59.9673137914    -83.1687399407    -25.7625640453
|  8>  H    -58.7503150679    -81.6181245764    -25.5682111710
|  9> *
| 10>
| 11> %EPRNMR
| 12>         GTENSOR   TRUE
| 13>         NUCLEI    = ALL H {AISO, ADIP, AORB}
| 14>         NUCLEI    = ALL C {AISO, ADIP, AORB}
| 15> END
| 16>
| 17>
| 18>                          ****END OF INPUT****

CARTESIAN COORDINATES (ANGSTROEM)
---------------------------------
  C    -59.724848  -82.067586  -25.604959
  H    -60.527606  -81.321351  -25.548370
  H    -59.967314  -83.168740  -25.762564
  H    -58.750315  -81.618125  -25.568211

 Total Charge           Charge          ....    0
 Multiplicity           Mult            ....    2
 Number of Electrons    NEL             ....    9
 Basis Dimension        Dim             ....   73

ORBITAL ENERGIES
----------------
                 SPIN UP ORBITALS
  NO   OCC          E(Eh)            E(eV)
   0   1.0000     -10.190982      -277.3107
   1   1.0000      -0.682169       -18.5628
   2   1.0000      -0.426482       -11.6052
   3   1.0000      -0.408201       -11.1077
   4   1.0000      -0.234919        -6.3925
   5   0.0000       0.000015         0.0004
   6   0.0000       0.035342         0.9617
   7   0.0000       0.037937         1.0323
   8   0.0000       0.047373         1.2891
   9   0.0000       0.081353         2.2137

                 SPIN DOWN ORBITALS
  NO   OCC          E(Eh)            E(eV)
   0   1.0000     -10.176410      -276.9142
   1   1.0000      -0.642563       -17.4850
   2   1.0000      -0.417461       -11.3597
   3   1.0000      -0.398655       -10.8480
   4   0.0000      -0.077155        -2.0995
   5   0.0000       0.003410         0.0928
   6   0.0000       0.035075         0.9544
   7   0.0000       0.037553         1.0219
   8   0.0000       0.060694         1.6516

MULLIKEN ATOMIC CHARGES AND SPIN POPULATIONS
--------------------------------------------
   0 C :   -0.428709    1.107892
   1 H :    0.136783   -0.036003
   2 H :    0.147153   -0.037573
   3 H :    0.144773   -0.034317
Sum of atomic charges         :    0.0000000

LOEWDIN ATOMIC CHARGES AND SPIN POPULATIONS
-------------------------------------------
   0 C :   -0.170167    0.917578
   1 H :    0.053071    0.028601
   2 H :    0.074113    0.021533
   3 H :    0.042983    0.032288

  Mayer bond orders larger than 0.100000
B(  0-C ,  1-H ) :   0.9757 B(  0-C ,  2-H ) :   0.9721 B(  0-C ,  3-H ) :   0.9746

FINAL SINGLE POINT ENERGY       -39.824819998769

DIPOLE MOMENT
-------------
                                X             Y             Z
Electronic contribution:      0.05145      -0.05515       0.02924
Nuclear contribution   :     -0.05298       0.07086      -0.04817
                        -----------------------------------------
Total Dipole Moment    :     -0.00153       0.01571      -0.01893
                        -----------------------------------------
Magnitude (a.u.)       :      0.02464
Magnitude (Debye)      :      0.06263

Rotational constants in cm-1:    10.306159     8.233112     4.580549
Rotational constants in MHz : 308970.877886 246822.501064 137321.404405

                             ****ORCA TERMINATED NORMALLY****
TOTAL RUN TIME: 0 days 0 hours 0 minutes 18 seconds 278 msec
