                         Program Version 5.0.3 -  RELEASE  -
|  1> !B3LYP EPR-III Autoaux
|  2> !PAL4
|  3>
|  4> * xyz 0 2
|  5>  C      0.0498432655    -14.8360398215    -10.3951721984
|  6>  H      1.1655611669    -15.0561263011    -10.4016358193
|  7>  H     -0.2283945218    -14.4016363851     -9.4085776931
|  8>  H     -0.7432066789    -15.1944866655    -11.1114727393
|  9> *
| 10>
| 11> %EPRNMR
| 12>         GTENSOR   TRUE
| 13>         NUCLEI    = ALL H {AISO, ADIP, AORB}
| 14>         NUCLEI    = ALL C {AISO, ADIP, AORB}
| 15> END
| 16>
| 17>
| 18>                          ****END OF INPUT****

CARTESIAN COORDINATES (ANGSTROEM)
---------------------------------
  C      0.049843  -14.836040  -10.395172
  H      1.165561  -15.056126  -10.401636
  H     -0.228395  -14.401636   -9.408578
  H     -0.743207  -15.194487  -11.111473

 Total Charge           Charge          ....    0
 Multiplicity           Mult            ....    2
 Number of Electrons    NEL             ....    9
 Basis Dimension        Dim             ....   73

ORBITAL ENERGIES
----------------
                 SPIN UP ORBITALS
  NO   OCC          E(Eh)            E(eV)
   0   1.0000     -10.198042      -277.5028
   1   1.0000      -0.676330       -18.4039
   2   1.0000      -0.426890       -11.6163
   3   1.0000      -0.397236       -10.8093
   4   1.0000      -0.236518        -6.4360
   5   0.0000      -0.001056        -0.0287
   6   0.0000       0.034743         0.9454
   7   0.0000       0.038536         1.0486
   8   0.0000       0.047187         1.2840
   9   0.0000       0.077459         2.1078

                 SPIN DOWN ORBITALS
  NO   OCC          E(Eh)            E(eV)
   0   1.0000     -10.183299      -277.1017
   1   1.0000      -0.636684       -17.3251
   2   1.0000      -0.418043       -11.3755
   3   1.0000      -0.387785       -10.5522
   4   0.0000      -0.077834        -2.1180
   5   0.0000       0.002547         0.0693
   6   0.0000       0.034524         0.9394
   7   0.0000       0.038216         1.0399
   8   0.0000       0.060485         1.6459

MULLIKEN ATOMIC CHARGES AND SPIN POPULATIONS
--------------------------------------------
   0 C :   -0.428046    1.109128
   1 H :    0.141452   -0.037690
   2 H :    0.135505   -0.036359
   3 H :    0.151089   -0.035079
Sum of atomic charges         :   -0.0000000

LOEWDIN ATOMIC CHARGES AND SPIN POPULATIONS
-------------------------------------------
   0 C :   -0.190699    0.927147
   1 H :    0.068513    0.022475
   2 H :    0.055863    0.026452
   3 H :    0.066324    0.023926

  Mayer bond orders larger than 0.100000
B(  0-C ,  1-H ) :   0.9716 B(  0-C ,  2-H ) :   0.9730 B(  0-C ,  3-H ) :   0.9687

FINAL SINGLE POINT ENERGY       -39.821738467211

DIPOLE MOMENT
-------------
                                X             Y             Z
Electronic contribution:     -0.04052       0.05763      -0.15390
Nuclear contribution   :      0.03330      -0.10802       0.19774
                        -----------------------------------------
Total Dipole Moment    :     -0.00722      -0.05039       0.04384
                        -----------------------------------------
Magnitude (a.u.)       :      0.06718
Magnitude (Debye)      :      0.17076

Rotational constants in cm-1:    10.009839     7.808408     4.422320
Rotational constants in MHz : 300087.425782 234090.196442 132577.804680

                             ****ORCA TERMINATED NORMALLY****
TOTAL RUN TIME: 0 days 0 hours 0 minutes 20 seconds 725 msec
