                         Program Version 5.0.3 -  RELEASE  -
|  1> !B3LYP EPR-III Autoaux
|  2> !PAL4
|  3>
|  4> * xyz 0 2
|  5>  C    -16.7921774676    -33.9166173480    -14.7375356490
|  6>  H    -16.1593920902    -34.8174836260    -14.4378950062
|  7>  H    -16.2942121284    -32.9998483927    -14.5077022199
|  8>  H    -17.7302229183    -33.9452022823    -15.2799180670
|  9> *
| 10>
| 11> %EPRNMR
| 12>         GTENSOR   TRUE
| 13>         NUCLEI    = ALL H {AISO, ADIP, AORB}
| 14>         NUCLEI    = ALL C {AISO, ADIP, AORB}
| 15> END
| 16>
| 17>
| 18>                          ****END OF INPUT****

CARTESIAN COORDINATES (ANGSTROEM)
---------------------------------
  C    -16.792177  -33.916617  -14.737536
  H    -16.159392  -34.817484  -14.437895
  H    -16.294212  -32.999848  -14.507702
  H    -17.730223  -33.945202  -15.279918

 Total Charge           Charge          ....    0
 Multiplicity           Mult            ....    2
 Number of Electrons    NEL             ....    9
 Basis Dimension        Dim             ....   73

ORBITAL ENERGIES
----------------
                 SPIN UP ORBITALS
  NO   OCC          E(Eh)            E(eV)
   0   1.0000     -10.189719      -277.2764
   1   1.0000      -0.683742       -18.6056
   2   1.0000      -0.432857       -11.7786
   3   1.0000      -0.404698       -11.0124
   4   1.0000      -0.235223        -6.4007
   5   0.0000       0.000179         0.0049
   6   0.0000       0.035116         0.9555
   7   0.0000       0.038155         1.0382
   8   0.0000       0.047284         1.2867
   9   0.0000       0.082055         2.2328

                 SPIN DOWN ORBITALS
  NO   OCC          E(Eh)            E(eV)
   0   1.0000     -10.175215      -276.8817
   1   1.0000      -0.644250       -17.5309
   2   1.0000      -0.423640       -11.5278
   3   1.0000      -0.395307       -10.7569
   4   0.0000      -0.077483        -2.1084
   5   0.0000       0.003492         0.0950
   6   0.0000       0.034780         0.9464
   7   0.0000       0.037765         1.0276
   8   0.0000       0.060566         1.6481

MULLIKEN ATOMIC CHARGES AND SPIN POPULATIONS
--------------------------------------------
   0 C :   -0.428987    1.105831
   1 H :    0.137970   -0.038524
   2 H :    0.140753   -0.034024
   3 H :    0.150265   -0.033283
Sum of atomic charges         :   -0.0000000

LOEWDIN ATOMIC CHARGES AND SPIN POPULATIONS
-------------------------------------------
   0 C :   -0.164630    0.914821
   1 H :    0.074105    0.021520
   2 H :    0.040046    0.033326
   3 H :    0.050479    0.030333

  Mayer bond orders larger than 0.100000
B(  0-C ,  1-H ) :   0.9756 B(  0-C ,  2-H ) :   0.9758 B(  0-C ,  3-H ) :   0.9739

FINAL SINGLE POINT ENERGY       -39.824860592546

DIPOLE MOMENT
-------------
                                X             Y             Z
Electronic contribution:     -0.12335       0.02388      -0.01145
Nuclear contribution   :      0.14443      -0.00951      -0.00967
                        -----------------------------------------
Total Dipole Moment    :      0.02108       0.01438      -0.02113
                        -----------------------------------------
Magnitude (a.u.)       :      0.03313
Magnitude (Debye)      :      0.08420

Rotational constants in cm-1:    10.275392     8.401170     4.629254
Rotational constants in MHz : 308048.513133 251860.755150 138781.533137

                             ****ORCA TERMINATED NORMALLY****
TOTAL RUN TIME: 0 days 0 hours 0 minutes 35 seconds 468 msec
