                         Program Version 5.0.3 -  RELEASE  -
|  1> !B3LYP EPR-III Autoaux
|  2> !PAL4
|  3>
|  4> * xyz 0 2
|  5>  C      8.9029043057     -4.7919075524     -8.0749697019
|  6>  H      7.7768205421     -4.7090752360     -8.2549057550
|  7>  H      9.4692535502     -4.9881879426     -8.9661623277
|  8>  H      9.4113948113     -4.5140710484     -7.1444151398
|  9> *
| 10>
| 11> %EPRNMR
| 12>         GTENSOR   TRUE
| 13>         NUCLEI    = ALL H {AISO, ADIP, AORB}
| 14>         NUCLEI    = ALL C {AISO, ADIP, AORB}
| 15> END
| 16>
| 17>
| 18>                          ****END OF INPUT****

CARTESIAN COORDINATES (ANGSTROEM)
---------------------------------
  C      8.902904   -4.791908   -8.074970
  H      7.776821   -4.709075   -8.254906
  H      9.469254   -4.988188   -8.966162
  H      9.411395   -4.514071   -7.144415

 Total Charge           Charge          ....    0
 Multiplicity           Mult            ....    2
 Number of Electrons    NEL             ....    9
 Basis Dimension        Dim             ....   73

ORBITAL ENERGIES
----------------
                 SPIN UP ORBITALS
  NO   OCC          E(Eh)            E(eV)
   0   1.0000     -10.191790      -277.3327
   1   1.0000      -0.681860       -18.5544
   2   1.0000      -0.426658       -11.6100
   3   1.0000      -0.407730       -11.0949
   4   1.0000      -0.235875        -6.4185
   5   0.0000      -0.000075        -0.0020
   6   0.0000       0.035633         0.9696
   7   0.0000       0.037766         1.0277
   8   0.0000       0.047239         1.2854
   9   0.0000       0.082091         2.2338

                 SPIN DOWN ORBITALS
  NO   OCC          E(Eh)            E(eV)
   0   1.0000     -10.177232      -276.9366
   1   1.0000      -0.642395       -17.4804
   2   1.0000      -0.417447       -11.3593
   3   1.0000      -0.398392       -10.8408
   4   0.0000      -0.077773        -2.1163
   5   0.0000       0.003281         0.0893
   6   0.0000       0.035309         0.9608
   7   0.0000       0.037403         1.0178
   8   0.0000       0.060512         1.6466

MULLIKEN ATOMIC CHARGES AND SPIN POPULATIONS
--------------------------------------------
   0 C :   -0.426688    1.105207
   1 H :    0.138839   -0.037745
   2 H :    0.140591   -0.033650
   3 H :    0.147258   -0.033812
Sum of atomic charges         :   -0.0000000

LOEWDIN ATOMIC CHARGES AND SPIN POPULATIONS
-------------------------------------------
   0 C :   -0.170398    0.917545
   1 H :    0.074046    0.021347
   2 H :    0.041697    0.032502
   3 H :    0.054656    0.028607

  Mayer bond orders larger than 0.100000
B(  0-C ,  1-H ) :   0.9742 B(  0-C ,  2-H ) :   0.9748 B(  0-C ,  3-H ) :   0.9733

FINAL SINGLE POINT ENERGY       -39.825219555913

DIPOLE MOMENT
-------------
                                X             Y             Z
Electronic contribution:      0.05006      -0.07583       0.08108
Nuclear contribution   :     -0.03841       0.12321      -0.10536
                        -----------------------------------------
Total Dipole Moment    :      0.01165       0.04737      -0.02428
                        -----------------------------------------
Magnitude (a.u.)       :      0.05449
Magnitude (Debye)      :      0.13851

Rotational constants in cm-1:     9.943928     8.416265     4.582561
Rotational constants in MHz : 298111.462257 252313.274213 137381.726421

                             ****ORCA TERMINATED NORMALLY****
TOTAL RUN TIME: 0 days 0 hours 0 minutes 20 seconds 719 msec
